REMARK SMILES COc1cc2ccc(=O)oc2cc1OC
REMARK SMILES IDX 3 1 13 2 12 3 11 4 5 5 4 6 6 7 7 8 8 9 9 10 10 11 2 12 1 13
REMARK SMILES IDX 14 14 15 15
REMARK H PARENT
ROOT
ATOM      1  C   UNL     1      -1.032  -0.760   0.332  1.00  0.00     0.161 A 
ATOM      2  C   UNL     1      -1.296   0.521  -0.203  1.00  0.00     0.164 A 
ATOM      3  C   UNL     1      -0.233   1.351  -0.565  1.00  0.00     0.098 A 
ATOM      4  C   UNL     1       1.074   0.900  -0.391  1.00  0.00     0.142 A 
ATOM      5  C   UNL     1       1.353  -0.358   0.133  1.00  0.00     0.022 A 
ATOM      6  C   UNL     1       0.293  -1.191   0.497  1.00  0.00     0.062 A 
ATOM      7  C   UNL     1       2.742  -0.763   0.286  1.00  0.00     0.019 C 
ATOM      8  C   UNL     1       3.717   0.075  -0.078  1.00  0.00     0.094 C 
ATOM      9  C   UNL     1       3.445   1.411  -0.636  1.00  0.00     0.336 C 
ATOM     10  O   UNL     1       4.364   2.153  -0.959  1.00  0.00    -0.246 OA
ATOM     11  O   UNL     1       2.112   1.774  -0.772  1.00  0.00    -0.423 OA
ENDROOT
BRANCH   1  12
ATOM     12  O   UNL     1      -2.135  -1.510   0.661  1.00  0.00    -0.493 OA
ATOM     13  C   UNL     1      -1.922  -2.805   1.203  1.00  0.00     0.278 C 
ENDBRANCH   1  12
BRANCH   2  14
ATOM     14  O   UNL     1      -2.621   0.860  -0.328  1.00  0.00    -0.493 OA
ATOM     15  C   UNL     1      -2.927   2.140  -0.862  1.00  0.00     0.278 C 
ENDBRANCH   2  14
TORSDOF 2
