REMARK SMILES O=C(O)[C@H]1O[C@@H](Oc2cc3oc(-c4ccccc4)cc(=O)c3c(O)c2O)[C@H](O)[C@@H](O)[C@@H]1O
REMARK SMILES IDX 6 1 27 2 29 3 31 4 4 5 5 6 7 7 8 8 12 9 19 10 11 11 20 12
REMARK SMILES IDX 10 13 21 14 22 15 9 16 23 17 25 18 13 19 16 20 15 21 17 22
REMARK SMILES IDX 14 23 18 24 24 25 26 27 28 29 30 31 2 33 1 34 3 35 32 37
REMARK H PARENT 24 26 26 28 28 30 30 32 3 36 32 38
ROOT
ATOM      1  C   UNL     1       2.728  -0.134   1.091  1.00  0.00     0.340 C 
ATOM      2  C   UNL     1       4.224  -0.378   0.778  1.00  0.00     0.214 C 
ATOM      3  C   UNL     1       5.062   0.133   1.940  1.00  0.00     0.181 C 
ATOM      4  C   UNL     1       4.855   1.640   2.114  1.00  0.00     0.186 C 
ATOM      5  C   UNL     1       3.371   2.028   1.945  1.00  0.00     0.263 C 
ATOM      6  O   UNL     1       2.512   0.892   2.073  1.00  0.00    -0.322 OA
ENDROOT
BRANCH   1   7
ATOM      7  O   UNL     1       2.064   0.206  -0.137  1.00  0.00    -0.458 OA
BRANCH   7   8
ATOM      8  C   UNL     1       0.949  -0.551  -0.357  1.00  0.00     0.172 A 
ATOM      9  C   UNL     1      -3.819  -0.625  -0.772  1.00  0.00     0.138 C 
ATOM     10  C   UNL     1      -3.879  -1.926  -1.096  1.00  0.00     0.100 C 
ATOM     11  O   UNL     1      -2.640   0.063  -0.524  1.00  0.00    -0.456 OA
ATOM     12  C   UNL     1      -2.632  -2.696  -1.182  1.00  0.00     0.197 C 
ATOM     13  C   UNL     1      -1.454  -0.624  -0.587  1.00  0.00     0.146 A 
ATOM     14  O   UNL     1      -2.621  -3.887  -1.470  1.00  0.00    -0.289 OA
ATOM     15  C   UNL     1      -1.383  -1.979  -0.905  1.00  0.00     0.111 A 
ATOM     16  C   UNL     1      -0.287   0.096  -0.319  1.00  0.00     0.098 A 
ATOM     17  C   UNL     1      -0.145  -2.621  -0.963  1.00  0.00     0.176 A 
ATOM     18  C   UNL     1       1.019  -1.903  -0.694  1.00  0.00     0.201 A 
BRANCH   9  19
ATOM     19  C   UNL     1      -5.034   0.206  -0.680  1.00  0.00     0.017 A 
ATOM     20  C   UNL     1      -7.325   1.830  -0.504  1.00  0.00     0.000 A 
ATOM     21  C   UNL     1      -7.331   0.551   0.049  1.00  0.00     0.001 A 
ATOM     22  C   UNL     1      -6.179   2.306  -1.137  1.00  0.00     0.001 A 
ATOM     23  C   UNL     1      -6.193  -0.255  -0.036  1.00  0.00     0.012 A 
ATOM     24  C   UNL     1      -5.041   1.501  -1.222  1.00  0.00     0.012 A 
ENDBRANCH   9  19
BRANCH  17  25
ATOM     25  O   UNL     1       0.009  -3.948  -1.282  1.00  0.00    -0.504 OA
ATOM     26  H   UNL     1      -0.889  -4.323  -1.444  1.00  0.00     0.293 HD
ENDBRANCH  17  25
BRANCH  18  27
ATOM     27  O   UNL     1       2.227  -2.547  -0.773  1.00  0.00    -0.502 OA
ATOM     28  H   UNL     1       1.993  -3.458  -1.060  1.00  0.00     0.293 HD
ENDBRANCH  18  27
ENDBRANCH   7   8
ENDBRANCH   1   7
BRANCH   2  29
ATOM     29  O   UNL     1       4.515  -1.774   0.584  1.00  0.00    -0.384 OA
ATOM     30  H   UNL     1       3.847  -2.101  -0.058  1.00  0.00     0.211 HD
ENDBRANCH   2  29
BRANCH   3  31
ATOM     31  O   UNL     1       6.456  -0.127   1.714  1.00  0.00    -0.387 OA
ATOM     32  H   UNL     1       6.485  -1.041   1.364  1.00  0.00     0.211 HD
ENDBRANCH   3  31
BRANCH   5  33
ATOM     33  C   UNL     1       3.141   2.818   0.653  1.00  0.00     0.335 C 
ATOM     34  O   UNL     1       3.928   2.968  -0.268  1.00  0.00    -0.249 OA
BRANCH  33  35
ATOM     35  O   UNL     1       1.905   3.357   0.581  1.00  0.00    -0.479 OA
ATOM     36  H   UNL     1       1.885   3.792  -0.297  1.00  0.00     0.296 HD
ENDBRANCH  33  35
ENDBRANCH   5  33
BRANCH   4  37
ATOM     37  O   UNL     1       5.324   2.005   3.427  1.00  0.00    -0.387 OA
ATOM     38  H   UNL     1       6.228   1.635   3.490  1.00  0.00     0.211 HD
ENDBRANCH   4  37
TORSDOF 10
