REMARK SMILES CC1(C)[C@@H](O)CC[C@]2(C)[C@H]3C(=O)C=C4[C@@H]5C[C@@](C)(C(=O)O)CC[C@]5(C)CC[C@@]4(C)[C@]3(C)CC[C@@H]12
REMARK SMILES IDX 25 1 24 2 23 3 22 4 17 5 16 6 15 7 14 8 13 9 11 10 12 11
REMARK SMILES IDX 10 12 8 13 7 14 6 15 4 16 2 17 34 18 33 19 32 20 30 21 28 22
REMARK SMILES IDX 27 23 26 24 29 25 31 26 1 27 3 28 9 29 18 30 19 31 20 32
REMARK SMILES IDX 21 33 5 35
REMARK H PARENT 21 34 5 36
ROOT
ATOM      1  C   UNL     1      -4.887   2.011  -1.297  1.00  0.00     0.012 C 
ATOM      2  C   UNL     1      -3.831   0.868  -1.289  1.00  0.00    -0.026 C 
ATOM      3  C   UNL     1      -4.551  -0.459  -1.637  1.00  0.00     0.008 C 
ATOM      4  C   UNL     1      -5.534  -0.939  -0.571  1.00  0.00     0.019 C 
ATOM      5  C   UNL     1      -4.907  -1.053   0.833  1.00  0.00     0.066 C 
ATOM      6  C   UNL     1      -4.186   0.269   1.185  1.00  0.00     0.027 C 
ATOM      7  C   UNL     1      -3.166   0.795   0.132  1.00  0.00     0.023 C 
ATOM      8  C   UNL     1      -1.743   0.195   0.195  1.00  0.00    -0.057 C 
ATOM      9  C   UNL     1      -1.242  -0.347   1.325  1.00  0.00     0.047 C 
ATOM     10  C   UNL     1       0.190  -0.709   1.518  1.00  0.00     0.159 C 
ATOM     11  O   UNL     1       0.486  -1.306   2.551  1.00  0.00    -0.295 OA
ATOM     12  C   UNL     1       1.204  -0.356   0.420  1.00  0.00     0.073 C 
ATOM     13  C   UNL     1       2.720  -0.291   0.887  1.00  0.00    -0.018 C 
ATOM     14  C   UNL     1       3.132  -1.692   1.469  1.00  0.00     0.010 C 
ATOM     15  C   UNL     1       4.497  -2.225   1.021  1.00  0.00     0.033 C 
ATOM     16  C   UNL     1       5.560  -1.139   0.902  1.00  0.00     0.120 C 
ATOM     17  C   UNL     1       5.169  -0.054  -0.152  1.00  0.00    -0.006 C 
ATOM     18  C   UNL     1       3.604  -0.013  -0.382  1.00  0.00     0.004 C 
ATOM     19  C   UNL     1       3.121   1.218  -1.174  1.00  0.00     0.005 C 
ATOM     20  C   UNL     1       1.664   1.070  -1.624  1.00  0.00     0.009 C 
ATOM     21  C   UNL     1       0.663   0.830  -0.463  1.00  0.00    -0.013 C 
ATOM     22  C   UNL     1      -0.810   0.421  -1.009  1.00  0.00    -0.005 C 
ATOM     23  C   UNL     1      -1.409   1.523  -1.923  1.00  0.00     0.012 C 
ATOM     24  C   UNL     1      -2.819   1.208  -2.421  1.00  0.00     0.008 C 
ATOM     25  C   UNL     1      -0.771  -0.906  -1.828  1.00  0.00     0.017 C 
ATOM     26  C   UNL     1       0.564   2.166   0.339  1.00  0.00     0.013 C 
ATOM     27  C   UNL     1       5.774   1.316   0.219  1.00  0.00     0.014 C 
ATOM     28  C   UNL     1       5.831  -0.473  -1.497  1.00  0.00     0.014 C 
ATOM     29  C   UNL     1       2.916   0.764   2.000  1.00  0.00     0.012 C 
ATOM     30  C   UNL     1      -3.984  -2.280   0.905  1.00  0.00     0.024 C 
ENDROOT
BRANCH   5  31
ATOM     31  C   UNL     1      -6.031  -1.289   1.843  1.00  0.00     0.309 C 
ATOM     32  O   UNL     1      -7.196  -1.551   1.595  1.00  0.00    -0.252 OA
BRANCH  31  33
ATOM     33  O   UNL     1      -5.622  -1.215   3.125  1.00  0.00    -0.481 OA
ATOM     34  H   UNL     1      -6.431  -1.410   3.644  1.00  0.00     0.296 HD
ENDBRANCH  31  33
ENDBRANCH   5  31
BRANCH  16  35
ATOM     35  O   UNL     1       5.798  -0.568   2.186  1.00  0.00    -0.393 OA
ATOM     36  H   UNL     1       5.972  -1.294   2.809  1.00  0.00     0.210 HD
ENDBRANCH  16  35
TORSDOF 3
