REMARK SMILES O=c1cc(-c2ccc(O)c(O)c2)oc2cc(O)cc(O)c12
REMARK SMILES IDX 4 1 3 2 2 3 1 4 21 5 19 6 18 7 16 8 15 9 14 10 13 11 5 12
REMARK SMILES IDX 6 13 7 14 8 15 12 16 10 17 9 18 11 20 20 22 17 24
REMARK H PARENT 9 19 11 21 20 23 17 25
ROOT
ATOM      1  C   UNL     1       0.230  -0.553  -0.494  1.00  0.00     0.138 C 
ATOM      2  C   UNL     1      -0.475  -1.690  -0.582  1.00  0.00     0.100 C 
ATOM      3  C   UNL     1      -1.872  -1.701  -0.124  1.00  0.00     0.197 C 
ATOM      4  O   UNL     1      -2.562  -2.712  -0.185  1.00  0.00    -0.289 OA
ATOM      5  C   UNL     1      -2.409  -0.445   0.412  1.00  0.00     0.107 A 
ATOM      6  C   UNL     1      -3.726  -0.347   0.873  1.00  0.00     0.134 A 
ATOM      7  C   UNL     1      -4.205   0.860   1.378  1.00  0.00     0.093 A 
ATOM      8  C   UNL     1      -3.355   1.963   1.417  1.00  0.00     0.123 A 
ATOM      9  C   UNL     1      -2.043   1.876   0.961  1.00  0.00     0.094 A 
ATOM     10  C   UNL     1      -1.569   0.665   0.457  1.00  0.00     0.146 A 
ATOM     11  O   UNL     1      -0.267   0.634   0.024  1.00  0.00    -0.456 OA
ENDROOT
BRANCH   1  12
ATOM     12  C   UNL     1       1.640  -0.478  -0.926  1.00  0.00     0.021 A 
ATOM     13  C   UNL     1       2.070  -1.073  -2.127  1.00  0.00     0.016 A 
ATOM     14  C   UNL     1       3.406  -0.988  -2.531  1.00  0.00     0.051 A 
ATOM     15  C   UNL     1       4.310  -0.301  -1.737  1.00  0.00     0.157 A 
ATOM     16  C   UNL     1       2.574   0.222  -0.142  1.00  0.00     0.062 A 
ATOM     17  C   UNL     1       3.901   0.302  -0.553  1.00  0.00     0.158 A 
BRANCH  15  18
ATOM     18  O   UNL     1       5.614  -0.218  -2.132  1.00  0.00    -0.504 OA
ATOM     19  H   UNL     1       6.050   0.305  -1.430  1.00  0.00     0.293 HD
ENDBRANCH  15  18
BRANCH  17  20
ATOM     20  O   UNL     1       4.846   0.968   0.179  1.00  0.00    -0.504 OA
ATOM     21  H   UNL     1       4.413   1.347   0.964  1.00  0.00     0.293 HD
ENDBRANCH  17  20
ENDBRANCH   1  12
BRANCH   6  22
ATOM     22  O   UNL     1      -4.602  -1.399   0.859  1.00  0.00    -0.507 OA
ATOM     23  H   UNL     1      -4.137  -2.181   0.481  1.00  0.00     0.293 HD
ENDBRANCH   6  22
BRANCH   8  24
ATOM     24  O   UNL     1      -3.778   3.165   1.902  1.00  0.00    -0.508 OA
ATOM     25  H   UNL     1      -4.708   3.086   2.173  1.00  0.00     0.293 HD
ENDBRANCH   8  24
TORSDOF 5
