REMARK SMILES O=c1cc(-c2ccccc2)oc2cc(O)c(O)c(O)c12
REMARK SMILES IDX 4 1 3 2 2 3 1 4 20 5 12 6 11 7 13 8 14 9 16 10 18 11 5 12
REMARK SMILES IDX 8 13 7 14 9 15 6 16 10 17 19 18 15 20 17 22
REMARK H PARENT 19 19 15 21 17 23
ROOT
ATOM      1  C   UNL     1       0.963  -0.340  -0.001  1.00  0.00     0.138 C 
ATOM      2  C   UNL     1       0.677  -1.635   0.194  1.00  0.00     0.100 C 
ATOM      3  C   UNL     1      -0.729  -2.063   0.198  1.00  0.00     0.197 C 
ATOM      4  O   UNL     1      -1.039  -3.236   0.368  1.00  0.00    -0.289 OA
ATOM      5  C   UNL     1      -1.747  -1.025  -0.013  1.00  0.00     0.111 A 
ATOM      6  C   UNL     1      -1.315   0.292  -0.197  1.00  0.00     0.146 A 
ATOM      7  O   UNL     1       0.011   0.650  -0.186  1.00  0.00    -0.456 OA
ATOM      8  C   UNL     1      -2.237   1.320  -0.404  1.00  0.00     0.098 A 
ATOM      9  C   UNL     1      -3.593   1.013  -0.423  1.00  0.00     0.165 A 
ATOM     10  C   UNL     1      -4.030  -0.301  -0.238  1.00  0.00     0.201 A 
ATOM     11  C   UNL     1      -3.113  -1.330  -0.032  1.00  0.00     0.176 A 
ENDROOT
BRANCH   1  12
ATOM     12  C   UNL     1       2.354   0.150  -0.006  1.00  0.00     0.017 A 
ATOM     13  C   UNL     1       4.991   1.129  -0.014  1.00  0.00     0.000 A 
ATOM     14  C   UNL     1       3.995   1.813   0.680  1.00  0.00     0.001 A 
ATOM     15  C   UNL     1       4.677  -0.037  -0.709  1.00  0.00     0.001 A 
ATOM     16  C   UNL     1       2.685   1.328   0.681  1.00  0.00     0.012 A 
ATOM     17  C   UNL     1       3.366  -0.522  -0.708  1.00  0.00     0.012 A 
ENDBRANCH   1  12
BRANCH  11  18
ATOM     18  O   UNL     1      -3.582  -2.605   0.144  1.00  0.00    -0.504 OA
ATOM     19  H   UNL     1      -2.818  -3.207   0.278  1.00  0.00     0.293 HD
ENDBRANCH  11  18
BRANCH   9  20
ATOM     20  O   UNL     1      -4.545   1.976  -0.621  1.00  0.00    -0.504 OA
ATOM     21  H   UNL     1      -4.102   2.834  -0.742  1.00  0.00     0.293 HD
ENDBRANCH   9  20
BRANCH  10  22
ATOM     22  O   UNL     1      -5.374  -0.558  -0.264  1.00  0.00    -0.502 OA
ATOM     23  H   UNL     1      -5.798   0.307  -0.421  1.00  0.00     0.293 HD
ENDBRANCH  10  22
TORSDOF 4
