REMARK SMILES Cc1coc2c1C(=O)C(=O)c1c-2ccc2c1CCCC2(C)C
REMARK SMILES IDX 1 1 2 2 3 3 4 4 5 5 6 6 7 7 8 8 9 9 10 10 11 11 12 12 13 13
REMARK SMILES IDX 14 14 15 15 16 16 17 17 18 18 19 19 20 20 21 21 22 22
REMARK H PARENT
ROOT
ATOM      1  C   UNL     1       6.168  -0.070  -0.585  1.00  0.00     0.048 C 
ATOM      2  C   UNL     1       4.877   0.362   0.002  1.00  0.00    -0.001 A 
ATOM      3  C   UNL     1       4.675   1.294   1.006  1.00  0.00     0.200 A 
ATOM      4  O   UNL     1       3.349   1.438   1.284  1.00  0.00    -0.463 OA
ATOM      5  C   UNL     1       2.697   0.590   0.454  1.00  0.00     0.146 A 
ATOM      6  C   UNL     1       3.576  -0.092  -0.344  1.00  0.00     0.075 A 
ATOM      7  C   UNL     1       3.056  -1.039  -1.296  1.00  0.00     0.237 C 
ATOM      8  O   UNL     1       3.771  -1.614  -2.107  1.00  0.00    -0.285 OA
ATOM      9  C   UNL     1       1.536  -1.315  -1.259  1.00  0.00     0.234 C 
ATOM     10  O   UNL     1       1.108  -2.283  -1.874  1.00  0.00    -0.285 OA
ATOM     11  C   UNL     1       0.638  -0.416  -0.427  1.00  0.00     0.041 A 
ATOM     12  C   UNL     1       1.255   0.500   0.458  1.00  0.00     0.030 A 
ATOM     13  C   UNL     1       0.479   1.300   1.292  1.00  0.00     0.013 A 
ATOM     14  C   UNL     1      -0.908   1.191   1.266  1.00  0.00     0.005 A 
ATOM     15  C   UNL     1      -1.564   0.293   0.401  1.00  0.00    -0.038 A 
ATOM     16  C   UNL     1      -0.784  -0.493  -0.490  1.00  0.00    -0.032 A 
ATOM     17  C   UNL     1      -1.460  -1.421  -1.480  1.00  0.00     0.036 C 
ATOM     18  C   UNL     1      -2.943  -1.155  -1.694  1.00  0.00     0.006 C 
ATOM     19  C   UNL     1      -3.635  -1.000  -0.354  1.00  0.00     0.011 C 
ATOM     20  C   UNL     1      -3.102   0.224   0.428  1.00  0.00    -0.010 C 
ATOM     21  C   UNL     1      -3.641   0.089   1.872  1.00  0.00     0.016 C 
ATOM     22  C   UNL     1      -3.670   1.523  -0.184  1.00  0.00     0.016 C 
ENDROOT
TORSDOF 0
