REMARK SMILES C=CCc1ccc(O)c(-c2cc(CC=C)ccc2O)c1
REMARK SMILES IDX 4 1 20 2 9 3 7 4 6 5 5 6 3 7 2 8 1 9 10 10 18 11 11 12 17 13
REMARK SMILES IDX 12 14 16 15 19 16 13 18 14 19 15 20 8 21
REMARK H PARENT 19 17 8 22
ROOT
ATOM      1  C   UNL     1       2.993  -0.345   0.459  1.00  0.00    -0.043 A 
ATOM      2  C   UNL     1       1.627  -0.075   0.266  1.00  0.00     0.016 A 
ATOM      3  C   UNL     1       0.882  -0.718  -0.739  1.00  0.00     0.027 A 
ATOM      4  C   UNL     1       1.550  -1.647  -1.554  1.00  0.00     0.123 A 
ATOM      5  C   UNL     1       2.905  -1.920  -1.380  1.00  0.00     0.047 A 
ATOM      6  C   UNL     1       3.626  -1.270  -0.379  1.00  0.00     0.008 A 
ENDROOT
BRANCH   1   7
ATOM      7  C   UNL     1       3.769   0.379   1.534  1.00  0.00     0.062 C 
BRANCH   7   8
ATOM      8  C   UNL     1       4.199   1.750   1.098  1.00  0.00    -0.030 C 
ATOM      9  C   UNL     1       3.837   2.887   1.708  1.00  0.00     0.004 C 
ENDBRANCH   7   8
ENDBRANCH   1   7
BRANCH   3  10
ATOM     10  C   UNL     1      -0.544  -0.391  -0.905  1.00  0.00     0.027 A 
ATOM     11  C   UNL     1      -1.039   0.300  -2.024  1.00  0.00     0.123 A 
ATOM     12  C   UNL     1      -1.465  -0.787   0.082  1.00  0.00     0.016 A 
ATOM     13  C   UNL     1      -2.397   0.581  -2.157  1.00  0.00     0.047 A 
ATOM     14  C   UNL     1      -2.838  -0.514  -0.040  1.00  0.00    -0.043 A 
ATOM     15  C   UNL     1      -3.293   0.180  -1.168  1.00  0.00     0.008 A 
BRANCH  11  16
ATOM     16  O   UNL     1      -0.235   0.731  -3.044  1.00  0.00    -0.507 OA
ATOM     17  H   UNL     1       0.696   0.581  -2.803  1.00  0.00     0.293 HD
ENDBRANCH  11  16
BRANCH  14  18
ATOM     18  C   UNL     1      -3.805  -0.935   1.040  1.00  0.00     0.062 C 
BRANCH  18  19
ATOM     19  C   UNL     1      -4.096   0.177   2.008  1.00  0.00    -0.030 C 
ATOM     20  C   UNL     1      -5.317   0.679   2.238  1.00  0.00     0.004 C 
ENDBRANCH  18  19
ENDBRANCH  14  18
ENDBRANCH   3  10
BRANCH   4  21
ATOM     21  O   UNL     1       0.928  -2.330  -2.564  1.00  0.00    -0.507 OA
ATOM     22  H   UNL     1      -0.019  -2.105  -2.570  1.00  0.00     0.293 HD
ENDBRANCH   4  21
TORSDOF 7
