REMARK SMILES O=C(O)c1ccc(O)c(O)c1
REMARK SMILES IDX 5 1 6 2 7 3 9 4 11 5 4 6 2 7 1 8 3 9 8 11 10 13
REMARK H PARENT 3 10 8 12 10 14
ROOT
ATOM      1  C   UNL     1       0.535   1.378  -0.443  1.00  0.00     0.020 A 
ATOM      2  C   UNL     1      -0.793   1.513  -0.854  1.00  0.00     0.051 A 
ATOM      3  C   UNL     1      -1.674   0.463  -0.643  1.00  0.00     0.157 A 
ATOM      4  C   UNL     1      -1.252  -0.715  -0.030  1.00  0.00     0.158 A 
ATOM      5  C   UNL     1       0.067  -0.862   0.384  1.00  0.00     0.065 A 
ATOM      6  C   UNL     1       0.968   0.194   0.176  1.00  0.00     0.063 A 
ENDROOT
BRANCH   6   7
ATOM      7  C   UNL     1       2.388   0.103   0.593  1.00  0.00     0.335 C 
ATOM      8  O   UNL     1       3.232   0.967   0.451  1.00  0.00    -0.246 OA
BRANCH   7   9
ATOM      9  O   UNL     1       2.685  -1.074   1.173  1.00  0.00    -0.478 OA
ATOM     10  H   UNL     1       3.638  -0.989   1.391  1.00  0.00     0.297 HD
ENDBRANCH   7   9
ENDBRANCH   6   7
BRANCH   3  11
ATOM     11  O   UNL     1      -2.972   0.594  -1.045  1.00  0.00    -0.504 OA
ATOM     12  H   UNL     1      -3.395  -0.253  -0.798  1.00  0.00     0.293 HD
ENDBRANCH   3  11
BRANCH   4  13
ATOM     13  O   UNL     1      -2.178  -1.706   0.144  1.00  0.00    -0.504 OA
ATOM     14  H   UNL     1      -1.744  -2.460   0.580  1.00  0.00     0.293 HD
ENDBRANCH   4  13
TORSDOF 4
