REMARK SMILES C=CCc1ccc(O)c(-c2ccc(O)c(CC=C)c2)c1
REMARK SMILES IDX 4 1 20 2 9 3 7 4 6 5 5 6 3 7 2 8 1 9 10 10 19 11 11 12 15 13
REMARK SMILES IDX 12 14 13 15 16 16 17 17 18 18 14 19 8 21
REMARK H PARENT 14 20 8 22
ROOT
ATOM      1  C   UNL     1       3.026  -0.518   0.744  1.00  0.00    -0.043 A 
ATOM      2  C   UNL     1       1.628  -0.410   0.653  1.00  0.00     0.016 A 
ATOM      3  C   UNL     1       0.851  -1.369  -0.026  1.00  0.00     0.024 A 
ATOM      4  C   UNL     1       1.527  -2.450  -0.617  1.00  0.00     0.123 A 
ATOM      5  C   UNL     1       2.917  -2.569  -0.541  1.00  0.00     0.047 A 
ATOM      6  C   UNL     1       3.663  -1.604   0.135  1.00  0.00     0.008 A 
ENDROOT
BRANCH   1   7
ATOM      7  C   UNL     1       3.824   0.540   1.469  1.00  0.00     0.062 C 
BRANCH   7   8
ATOM      8  C   UNL     1       4.054   1.760   0.621  1.00  0.00    -0.030 C 
ATOM      9  C   UNL     1       3.643   2.993   0.944  1.00  0.00     0.004 C 
ENDBRANCH   7   8
ENDBRANCH   1   7
BRANCH   3  10
ATOM     10  C   UNL     1      -0.614  -1.206  -0.094  1.00  0.00    -0.014 A 
ATOM     11  C   UNL     1      -1.185  -0.036  -0.626  1.00  0.00     0.016 A 
ATOM     12  C   UNL     1      -1.479  -2.199   0.388  1.00  0.00     0.013 A 
ATOM     13  C   UNL     1      -2.580   0.149  -0.683  1.00  0.00    -0.002 A 
ATOM     14  C   UNL     1      -2.866  -2.032   0.344  1.00  0.00     0.047 A 
ATOM     15  C   UNL     1      -3.406  -0.862  -0.186  1.00  0.00     0.119 A 
BRANCH  13  16
ATOM     16  C   UNL     1      -3.141   1.433  -1.248  1.00  0.00     0.066 C 
BRANCH  16  17
ATOM     17  C   UNL     1      -3.198   2.535  -0.225  1.00  0.00    -0.030 C 
ATOM     18  C   UNL     1      -4.329   3.120   0.189  1.00  0.00     0.004 C 
ENDBRANCH  16  17
ENDBRANCH  13  16
BRANCH  15  19
ATOM     19  O   UNL     1      -4.761  -0.696  -0.228  1.00  0.00    -0.508 OA
ATOM     20  H   UNL     1      -5.181  -1.467   0.186  1.00  0.00     0.293 HD
ENDBRANCH  15  19
ENDBRANCH   3  10
BRANCH   4  21
ATOM     21  O   UNL     1       0.814  -3.403  -1.297  1.00  0.00    -0.507 OA
ATOM     22  H   UNL     1       1.433  -4.018  -1.721  1.00  0.00     0.293 HD
ENDBRANCH   4  21
TORSDOF 7
