REMARK SMILES COc1c(O)cc(O)c2c(=O)cc(-c3ccccc3)oc12
REMARK SMILES IDX 3 1 4 2 6 3 7 4 9 5 21 6 20 7 13 8 12 9 10 10 11 11 2 12
REMARK SMILES IDX 1 13 5 14 8 16 14 18 15 19 19 20 16 21 18 22 17 23
REMARK H PARENT 5 15 8 17
ROOT
ATOM      1  C   UNL     1      -2.120  -0.781   0.338  1.00  0.00     0.204 A 
ATOM      2  C   UNL     1      -3.452  -0.370   0.503  1.00  0.00     0.165 A 
ATOM      3  C   UNL     1      -3.789   0.987   0.473  1.00  0.00     0.097 A 
ATOM      4  C   UNL     1      -2.800   1.941   0.261  1.00  0.00     0.134 A 
ATOM      5  C   UNL     1      -1.473   1.548   0.075  1.00  0.00     0.111 A 
ATOM      6  C   UNL     1      -1.134   0.197   0.110  1.00  0.00     0.188 A 
ATOM      7  O   UNL     1       0.164  -0.233  -0.065  1.00  0.00    -0.452 OA
ATOM      8  C   UNL     1       1.161   0.702  -0.288  1.00  0.00     0.138 C 
ATOM      9  C   UNL     1       0.950   2.024  -0.355  1.00  0.00     0.100 C 
ATOM     10  C   UNL     1      -0.413   2.533  -0.163  1.00  0.00     0.197 C 
ATOM     11  O   UNL     1      -0.660   3.734  -0.200  1.00  0.00    -0.289 OA
ENDROOT
BRANCH   1  12
ATOM     12  O   UNL     1      -1.663  -2.075   0.330  1.00  0.00    -0.490 OA
ATOM     13  C   UNL     1      -2.409  -3.034   1.068  1.00  0.00     0.278 C 
ENDBRANCH   1  12
BRANCH   2  14
ATOM     14  O   UNL     1      -4.457  -1.282   0.672  1.00  0.00    -0.504 OA
ATOM     15  H   UNL     1      -5.311  -0.819   0.700  1.00  0.00     0.293 HD
ENDBRANCH   2  14
BRANCH   4  16
ATOM     16  O   UNL     1      -3.204   3.249   0.240  1.00  0.00    -0.507 OA
ATOM     17  H   UNL     1      -2.413   3.813   0.076  1.00  0.00     0.293 HD
ENDBRANCH   4  16
BRANCH   8  18
ATOM     18  C   UNL     1       2.504   0.116  -0.481  1.00  0.00     0.017 A 
ATOM     19  C   UNL     1       3.656   0.715   0.053  1.00  0.00     0.012 A 
ATOM     20  C   UNL     1       2.647  -1.087  -1.191  1.00  0.00     0.012 A 
ATOM     21  C   UNL     1       4.915   0.138  -0.135  1.00  0.00     0.001 A 
ATOM     22  C   UNL     1       3.906  -1.663  -1.378  1.00  0.00     0.001 A 
ATOM     23  C   UNL     1       5.040  -1.049  -0.852  1.00  0.00     0.000 A 
ENDBRANCH   8  18
TORSDOF 4
