REMARK SMILES O=c1c(O)c(-c2ccc(O)c(O)c2)oc2cc(O)cc(O)c12
REMARK SMILES IDX 5 1 3 2 2 3 1 4 22 5 20 6 19 7 17 8 16 9 15 10 14 11 6 12
REMARK SMILES IDX 7 13 8 14 9 15 13 16 11 17 10 18 12 20 4 22 21 24 18 26
REMARK H PARENT 10 19 12 21 4 23 21 25 18 27
ROOT
ATOM      1  C   UNL     1       0.358   0.273   0.153  1.00  0.00     0.180 C 
ATOM      2  C   UNL     1      -0.080   0.898   1.262  1.00  0.00     0.208 C 
ATOM      3  C   UNL     1      -1.538   0.936   1.522  1.00  0.00     0.238 C 
ATOM      4  O   UNL     1      -1.979   1.495   2.524  1.00  0.00    -0.285 OA
ATOM      5  C   UNL     1      -2.417   0.287   0.548  1.00  0.00     0.111 A 
ATOM      6  C   UNL     1      -3.807   0.274   0.705  1.00  0.00     0.134 A 
ATOM      7  C   UNL     1      -4.613  -0.353  -0.242  1.00  0.00     0.093 A 
ATOM      8  C   UNL     1      -4.016  -0.966  -1.341  1.00  0.00     0.123 A 
ATOM      9  C   UNL     1      -2.634  -0.958  -1.506  1.00  0.00     0.094 A 
ATOM     10  C   UNL     1      -1.832  -0.328  -0.555  1.00  0.00     0.146 A 
ATOM     11  O   UNL     1      -0.477  -0.352  -0.765  1.00  0.00    -0.452 OA
ENDROOT
BRANCH   1  12
ATOM     12  C   UNL     1       1.789   0.159  -0.200  1.00  0.00     0.025 A 
ATOM     13  C   UNL     1       2.650   1.272  -0.167  1.00  0.00     0.016 A 
ATOM     14  C   UNL     1       3.999   1.155  -0.525  1.00  0.00     0.051 A 
ATOM     15  C   UNL     1       4.487  -0.081  -0.925  1.00  0.00     0.157 A 
ATOM     16  C   UNL     1       2.304  -1.078  -0.618  1.00  0.00     0.062 A 
ATOM     17  C   UNL     1       3.643  -1.186  -0.972  1.00  0.00     0.158 A 
BRANCH  15  18
ATOM     18  O   UNL     1       5.793  -0.261  -1.286  1.00  0.00    -0.504 OA
ATOM     19  H   UNL     1       6.252   0.592  -1.192  1.00  0.00     0.293 HD
ENDBRANCH  15  18
BRANCH  17  20
ATOM     20  O   UNL     1       4.131  -2.398  -1.371  1.00  0.00    -0.504 OA
ATOM     21  H   UNL     1       5.075  -2.230  -1.563  1.00  0.00     0.293 HD
ENDBRANCH  17  20
ENDBRANCH   1  12
BRANCH   2  22
ATOM     22  O   UNL     1       0.742   1.501   2.196  1.00  0.00    -0.502 OA
ATOM     23  H   UNL     1       0.139   1.830   2.897  1.00  0.00     0.293 HD
ENDBRANCH   2  22
BRANCH   6  24
ATOM     24  O   UNL     1      -4.444   0.860   1.765  1.00  0.00    -0.507 OA
ATOM     25  H   UNL     1      -3.766   1.258   2.355  1.00  0.00     0.293 HD
ENDBRANCH   6  24
BRANCH   8  26
ATOM     26  O   UNL     1      -4.763  -1.593  -2.294  1.00  0.00    -0.508 OA
ATOM     27  H   UNL     1      -5.703  -1.526  -2.053  1.00  0.00     0.293 HD
ENDBRANCH   8  26
TORSDOF 6
