REMARK SMILES C=C1CC[C@@H]2[C@](C)(CO)[C@H](O)CC[C@@]2(C)[C@@H]1C/C=C1/C(=O)OC[C@H]1O
REMARK SMILES IDX 15 1 14 2 13 3 12 4 10 5 6 6 5 7 4 8 3 9 2 10 1 11 16 12
REMARK SMILES IDX 7 13 17 14 18 15 19 16 24 17 20 18 23 19 22 20 21 21 25 22
REMARK SMILES IDX 8 24 9 25 11 27
REMARK H PARENT 25 23 9 26 11 28
ROOT
ATOM      1  C   UNL     1      -0.568   0.860  -1.813  1.00  0.00     0.012 C 
ATOM      2  C   UNL     1      -0.508   0.294  -0.371  1.00  0.00    -0.022 C 
ATOM      3  C   UNL     1      -0.405   1.492   0.613  1.00  0.00     0.010 C 
ATOM      4  C   UNL     1      -1.704   2.264   0.789  1.00  0.00     0.033 C 
ATOM      5  C   UNL     1      -2.821   1.342   1.272  1.00  0.00     0.123 C 
ATOM      6  C   UNL     1      -3.133   0.178   0.281  1.00  0.00     0.020 C 
ATOM      7  C   UNL     1      -1.775  -0.582  -0.033  1.00  0.00     0.007 C 
ATOM      8  C   UNL     1      -1.892  -1.775  -1.017  1.00  0.00     0.009 C 
ATOM      9  C   UNL     1      -0.551  -2.424  -1.390  1.00  0.00     0.031 C 
ATOM     10  C   UNL     1       0.518  -2.099  -0.389  1.00  0.00    -0.073 C 
ATOM     11  C   UNL     1       1.112  -3.067   0.330  1.00  0.00     0.008 C 
ATOM     12  C   UNL     1       0.797  -0.613  -0.156  1.00  0.00     0.024 C 
ATOM     13  C   UNL     1      -4.086  -0.808   1.017  1.00  0.00     0.017 C 
ENDROOT
BRANCH  12  14
ATOM     14  C   UNL     1       2.035  -0.111  -0.946  1.00  0.00     0.036 C 
BRANCH  14  15
ATOM     15  C   UNL     1       3.339  -0.733  -0.515  1.00  0.00    -0.012 C 
ATOM     16  C   UNL     1       4.269  -0.133   0.244  1.00  0.00     0.065 C 
ATOM     17  C   UNL     1       4.258   1.203   0.880  1.00  0.00     0.189 C 
ATOM     18  C   UNL     1       5.533  -0.803   0.622  1.00  0.00     0.336 C 
ATOM     19  C   UNL     1       5.291   1.022   1.974  1.00  0.00     0.270 C 
ATOM     20  O   UNL     1       6.175  -0.012   1.525  1.00  0.00    -0.459 OA
ATOM     21  O   UNL     1       5.951  -1.859   0.186  1.00  0.00    -0.246 OA
BRANCH  17  22
ATOM     22  O   UNL     1       4.666   2.196  -0.056  1.00  0.00    -0.385 OA
ATOM     23  H   UNL     1       5.465   1.881  -0.514  1.00  0.00     0.211 HD
ENDBRANCH  17  22
ENDBRANCH  14  15
ENDBRANCH  12  14
BRANCH   6  24
ATOM     24  C   UNL     1      -3.926   0.737  -0.933  1.00  0.00     0.165 C 
BRANCH  24  25
ATOM     25  O   UNL     1      -4.295  -0.244  -1.889  1.00  0.00    -0.396 OA
ATOM     26  H   UNL     1      -5.009  -0.780  -1.503  1.00  0.00     0.210 HD
ENDBRANCH  24  25
ENDBRANCH   6  24
BRANCH   5  27
ATOM     27  O   UNL     1      -3.988   2.112   1.560  1.00  0.00    -0.392 OA
ATOM     28  H   UNL     1      -4.013   2.884   0.968  1.00  0.00     0.210 HD
ENDBRANCH   5  27
TORSDOF 6
