REMARK SMILES COC(=O)C1=CO[C@@H](O[C@@H]2O[C@H](CO)[C@@H](O)[C@H](O)[C@H]2O)[C@@H]2C(CO)=CC[C@H]12
REMARK SMILES IDX 9 1 8 2 5 3 6 4 27 5 7 6 21 7 26 8 22 9 25 10 3 11 4 12 2 13
REMARK SMILES IDX 1 14 23 15 24 16 10 18 19 19 11 20 17 21 12 22 15 23 20 24
REMARK SMILES IDX 18 26 13 28 14 29 16 31
REMARK H PARENT 24 17 20 25 18 27 14 30 16 32
ROOT
ATOM      1  O   UNL     1      -0.830  -0.729   0.025  1.00  0.00    -0.310 OA
ENDROOT
BRANCH   1   2
ATOM      2  C   UNL     1       0.490  -0.184   0.142  1.00  0.00     0.316 C 
ATOM      3  C   UNL     1       2.877   0.988  -0.718  1.00  0.00     0.076 C 
ATOM      4  C   UNL     1       1.734   1.680  -0.621  1.00  0.00     0.202 C 
ATOM      5  C   UNL     1       2.877  -0.512  -0.682  1.00  0.00     0.047 C 
ATOM      6  O   UNL     1       0.494   1.141  -0.410  1.00  0.00    -0.471 OA
ATOM      7  C   UNL     1       1.457  -1.117  -0.618  1.00  0.00     0.094 C 
ATOM      8  C   UNL     1       3.626  -1.120   0.518  1.00  0.00     0.037 C 
ATOM      9  C   UNL     1       1.716  -2.424   0.102  1.00  0.00    -0.039 C 
ATOM     10  C   UNL     1       2.898  -2.408   0.734  1.00  0.00    -0.024 C 
BRANCH   3  11
ATOM     11  C   UNL     1       4.184   1.654  -0.962  1.00  0.00     0.337 C 
ATOM     12  O   UNL     1       5.222   1.032  -1.133  1.00  0.00    -0.246 OA
BRANCH  11  13
ATOM     13  O   UNL     1       4.066   3.004  -0.954  1.00  0.00    -0.466 OA
ATOM     14  C   UNL     1       5.295   3.697  -1.177  1.00  0.00     0.282 C 
ENDBRANCH  11  13
ENDBRANCH   3  11
BRANCH   9  15
ATOM     15  C   UNL     1       0.731  -3.541   0.070  1.00  0.00     0.187 C 
BRANCH  15  16
ATOM     16  O   UNL     1       0.607  -3.997  -1.268  1.00  0.00    -0.392 OA
ATOM     17  H   UNL     1       1.502  -4.236  -1.564  1.00  0.00     0.211 HD
ENDBRANCH  15  16
ENDBRANCH   9  15
ENDBRANCH   1   2
BRANCH   1  18
ATOM     18  C   UNL     1      -1.668  -0.440   1.143  1.00  0.00     0.286 C 
ATOM     19  C   UNL     1      -2.037   1.058   1.258  1.00  0.00     0.202 C 
ATOM     20  O   UNL     1      -2.827  -1.292   1.080  1.00  0.00    -0.341 OA
ATOM     21  C   UNL     1      -3.462   1.189   1.779  1.00  0.00     0.179 C 
ATOM     22  C   UNL     1      -3.890  -0.806   0.248  1.00  0.00     0.178 C 
ATOM     23  C   UNL     1      -4.460   0.504   0.835  1.00  0.00     0.177 C 
BRANCH  19  24
ATOM     24  O   UNL     1      -1.144   1.733   2.161  1.00  0.00    -0.385 OA
ATOM     25  H   UNL     1      -1.569   2.600   2.325  1.00  0.00     0.211 HD
ENDBRANCH  19  24
BRANCH  21  26
ATOM     26  O   UNL     1      -3.790   2.581   1.926  1.00  0.00    -0.387 OA
ATOM     27  H   UNL     1      -4.750   2.604   2.115  1.00  0.00     0.211 HD
ENDBRANCH  21  26
BRANCH  22  28
ATOM     28  C   UNL     1      -3.478  -0.684  -1.230  1.00  0.00     0.191 C 
BRANCH  28  29
ATOM     29  O   UNL     1      -4.618  -0.432  -2.044  1.00  0.00    -0.394 OA
ATOM     30  H   UNL     1      -4.318  -0.477  -2.969  1.00  0.00     0.210 HD
ENDBRANCH  28  29
ENDBRANCH  22  28
BRANCH  23  31
ATOM     31  O   UNL     1      -5.643   0.254   1.623  1.00  0.00    -0.387 OA
ATOM     32  H   UNL     1      -5.483  -0.553   2.147  1.00  0.00     0.211 HD
ENDBRANCH  23  31
ENDBRANCH   1  18
TORSDOF 11
