REMARK SMILES O=c1c(-c2ccc(O)cc2)coc2cc(O)cc(O)c12
REMARK SMILES IDX 3 1 11 2 12 3 13 4 14 5 15 6 17 7 18 8 20 9 2 10 1 11 4 12
REMARK SMILES IDX 5 13 6 14 7 15 10 16 9 17 8 18 19 20 16 22
REMARK H PARENT 8 19 19 21 16 23
ROOT
ATOM      1  C   UNL     1       0.463  -0.503  -0.043  1.00  0.00     0.065 C 
ATOM      2  C   UNL     1      -0.130  -1.675   0.232  1.00  0.00     0.208 C 
ATOM      3  O   UNL     1      -1.478  -1.912   0.340  1.00  0.00    -0.463 OA
ATOM      4  C   UNL     1      -2.330  -0.854   0.155  1.00  0.00     0.145 A 
ATOM      5  C   UNL     1      -3.697  -1.112   0.263  1.00  0.00     0.094 A 
ATOM      6  C   UNL     1      -4.607  -0.074   0.086  1.00  0.00     0.123 A 
ATOM      7  C   UNL     1      -4.175   1.218  -0.197  1.00  0.00     0.093 A 
ATOM      8  C   UNL     1      -2.809   1.470  -0.303  1.00  0.00     0.134 A 
ATOM      9  C   UNL     1      -1.882   0.435  -0.127  1.00  0.00     0.107 A 
ATOM     10  C   UNL     1      -0.432   0.671  -0.233  1.00  0.00     0.204 C 
ATOM     11  O   UNL     1      -0.020   1.803  -0.470  1.00  0.00    -0.288 OA
ENDROOT
BRANCH   1  12
ATOM     12  C   UNL     1       1.932  -0.398  -0.117  1.00  0.00    -0.011 A 
ATOM     13  C   UNL     1       2.612   0.605   0.591  1.00  0.00     0.013 A 
ATOM     14  C   UNL     1       4.005   0.708   0.529  1.00  0.00     0.047 A 
ATOM     15  C   UNL     1       4.724  -0.195  -0.246  1.00  0.00     0.115 A 
ATOM     16  C   UNL     1       2.681  -1.294  -0.898  1.00  0.00     0.013 A 
ATOM     17  C   UNL     1       4.074  -1.193  -0.959  1.00  0.00     0.047 A 
BRANCH  15  18
ATOM     18  O   UNL     1       6.082  -0.131  -0.336  1.00  0.00    -0.508 OA
ATOM     19  H   UNL     1       6.392   0.629   0.183  1.00  0.00     0.293 HD
ENDBRANCH  15  18
ENDBRANCH   1  12
BRANCH   8  20
ATOM     20  O   UNL     1      -2.444   2.760  -0.583  1.00  0.00    -0.507 OA
ATOM     21  H   UNL     1      -1.461   2.793  -0.635  1.00  0.00     0.293 HD
ENDBRANCH   8  20
BRANCH   6  22
ATOM     22  O   UNL     1      -5.933  -0.370   0.199  1.00  0.00    -0.508 OA
ATOM     23  H   UNL     1      -6.449   0.441   0.051  1.00  0.00     0.293 HD
ENDBRANCH   6  22
TORSDOF 4
