REMARK SMILES O=C(/C=C/c1ccc(O)c(O)c1)O[C@@H]1C[C@](O)(C(=O)O)C[C@@H](O)[C@H]1O
REMARK SMILES IDX 2 1 1 2 13 3 14 4 21 5 22 6 16 7 24 8 15 9 23 10 18 12 19 13
REMARK SMILES IDX 20 14 17 16 25 18 3 20 4 21 5 22 12 23 6 24 10 25 7 26 8 27
REMARK SMILES IDX 11 28 9 30
REMARK H PARENT 23 11 20 15 17 17 25 19 11 29 9 31
ROOT
ATOM      1  C   UNL     1       0.438  -0.654   0.167  1.00  0.00     0.331 C 
ATOM      2  O   UNL     1       0.409  -1.834   0.480  1.00  0.00    -0.247 OA
ENDROOT
BRANCH   1   3
ATOM      3  O   UNL     1      -0.639   0.149  -0.015  1.00  0.00    -0.456 OA
BRANCH   3   4
ATOM      4  C   UNL     1      -1.934  -0.491   0.099  1.00  0.00     0.211 C 
ATOM      5  C   UNL     1      -4.634  -1.013   0.822  1.00  0.00     0.082 C 
ATOM      6  C   UNL     1      -3.688  -0.680   1.971  1.00  0.00     0.150 C 
ATOM      7  C   UNL     1      -4.386  -0.094  -0.385  1.00  0.00     0.167 C 
ATOM      8  C   UNL     1      -2.219  -0.900   1.564  1.00  0.00     0.184 C 
ATOM      9  C   UNL     1      -2.972   0.506  -0.419  1.00  0.00     0.095 C 
BRANCH   6  10
ATOM     10  O   UNL     1      -4.007  -1.499   3.096  1.00  0.00    -0.390 OA
ATOM     11  H   UNL     1      -3.452  -2.302   2.987  1.00  0.00     0.211 HD
ENDBRANCH   6  10
BRANCH   7  12
ATOM     12  C   UNL     1      -5.443   1.020  -0.410  1.00  0.00     0.335 C 
ATOM     13  O   UNL     1      -6.360   1.101  -1.214  1.00  0.00    -0.249 OA
BRANCH  12  14
ATOM     14  O   UNL     1      -5.322   1.918   0.585  1.00  0.00    -0.479 OA
ATOM     15  H   UNL     1      -6.076   2.532   0.454  1.00  0.00     0.296 HD
ENDBRANCH  12  14
ENDBRANCH   7  12
BRANCH   7  16
ATOM     16  O   UNL     1      -4.529  -0.894  -1.570  1.00  0.00    -0.378 OA
ATOM     17  H   UNL     1      -5.482  -0.914  -1.789  1.00  0.00     0.212 HD
ENDBRANCH   7  16
BRANCH   8  18
ATOM     18  O   UNL     1      -1.929  -2.303   1.740  1.00  0.00    -0.387 OA
ATOM     19  H   UNL     1      -1.014  -2.446   1.408  1.00  0.00     0.211 HD
ENDBRANCH   8  18
ENDBRANCH   3   4
ENDBRANCH   1   3
BRANCH   1  20
ATOM     20  C   UNL     1       1.656   0.146  -0.058  1.00  0.00     0.094 C 
ATOM     21  C   UNL     1       2.863  -0.419   0.096  1.00  0.00     0.016 C 
BRANCH  21  22
ATOM     22  C   UNL     1       4.132   0.289  -0.122  1.00  0.00    -0.021 A 
ATOM     23  C   UNL     1       5.209  -0.417  -0.681  1.00  0.00     0.058 A 
ATOM     24  C   UNL     1       4.314   1.630   0.258  1.00  0.00     0.012 A 
ATOM     25  C   UNL     1       6.428   0.226  -0.875  1.00  0.00     0.157 A 
ATOM     26  C   UNL     1       5.542   2.267   0.060  1.00  0.00     0.051 A 
ATOM     27  C   UNL     1       6.588   1.558  -0.508  1.00  0.00     0.157 A 
BRANCH  25  28
ATOM     28  O   UNL     1       7.505  -0.415  -1.424  1.00  0.00    -0.504 OA
ATOM     29  H   UNL     1       7.245  -1.330  -1.626  1.00  0.00     0.293 HD
ENDBRANCH  25  28
BRANCH  27  30
ATOM     30  O   UNL     1       7.787   2.181  -0.701  1.00  0.00    -0.504 OA
ATOM     31  H   UNL     1       8.358   1.495  -1.101  1.00  0.00     0.293 HD
ENDBRANCH  27  30
ENDBRANCH  21  22
ENDBRANCH   1  20
TORSDOF 11
