REMARK SMILES COc1ccc([C@@H]2CC(=O)c3c(O)cc(O[C@@H]4O[C@H](CO[C@@H]5O[C@@H](C)[C@H](O)[C@@H](O)[C@H]5O)[C@@H](O)[C@H](O)[C@H]4O)cc3O2)cc1O
REMARK SMILES IDX 19 1 32 2 34 3 36 4 17 5 18 6 20 7 21 8 22 9 24 10 26 11
REMARK SMILES IDX 23 12 28 13 30 14 25 15 27 16 29 18 31 20 33 22 35 24 16 26
REMARK SMILES IDX 15 27 14 28 38 29 12 30 39 31 11 32 40 33 9 34 7 35 10 36
REMARK SMILES IDX 8 37 13 38 6 40 41 41 5 42 42 43 4 44 3 45 43 46 2 48 1 49
REMARK SMILES IDX 37 50
REMARK H PARENT 27 17 29 19 31 21 33 23 35 25 13 39 43 47 37 51
ROOT
ATOM      1  C   UNL     1      -2.891  -0.447   2.199  1.00  0.00     0.180 C 
ATOM      2  C   UNL     1      -3.661   0.881   2.315  1.00  0.00     0.177 C 
ATOM      3  C   UNL     1      -3.469   1.780   1.087  1.00  0.00     0.180 C 
ATOM      4  C   UNL     1      -2.187   1.468   0.307  1.00  0.00     0.214 C 
ATOM      5  C   UNL     1      -1.096   0.924   1.253  1.00  0.00     0.339 C 
ATOM      6  O   UNL     1      -1.494  -0.275   1.938  1.00  0.00    -0.332 OA
ENDROOT
BRANCH   1   7
ATOM      7  C   UNL     1      -3.481  -1.426   1.174  1.00  0.00     0.198 C 
BRANCH   7   8
ATOM      8  O   UNL     1      -4.892  -1.520   1.346  1.00  0.00    -0.347 OA
BRANCH   8   9
ATOM      9  C   UNL     1      -5.557  -1.910   0.139  1.00  0.00     0.281 C 
ATOM     10  C   UNL     1      -6.406  -0.817  -1.850  1.00  0.00     0.150 C 
ATOM     11  C   UNL     1      -7.877  -0.984  -1.416  1.00  0.00     0.174 C 
ATOM     12  O   UNL     1      -5.514  -0.767  -0.730  1.00  0.00    -0.344 OA
ATOM     13  C   UNL     1      -7.988  -1.262   0.088  1.00  0.00     0.179 C 
ATOM     14  C   UNL     1      -6.994  -2.341   0.502  1.00  0.00     0.202 C 
ATOM     15  C   UNL     1      -5.961  -1.880  -2.852  1.00  0.00     0.041 C 
BRANCH  11  16
ATOM     16  O   UNL     1      -8.640   0.209  -1.673  1.00  0.00    -0.388 OA
ATOM     17  H   UNL     1      -8.574   0.405  -2.624  1.00  0.00     0.211 HD
ENDBRANCH  11  16
BRANCH  13  18
ATOM     18  O   UNL     1      -9.323  -1.712   0.379  1.00  0.00    -0.387 OA
ATOM     19  H   UNL     1      -9.905  -1.001   0.041  1.00  0.00     0.211 HD
ENDBRANCH  13  18
BRANCH  14  20
ATOM     20  O   UNL     1      -7.345  -3.558  -0.186  1.00  0.00    -0.385 OA
ATOM     21  H   UNL     1      -8.294  -3.691   0.020  1.00  0.00     0.211 HD
ENDBRANCH  14  20
ENDBRANCH   8   9
ENDBRANCH   7   8
ENDBRANCH   1   7
BRANCH   2  22
ATOM     22  O   UNL     1      -3.148   1.596   3.456  1.00  0.00    -0.387 OA
ATOM     23  H   UNL     1      -3.334   1.062   4.249  1.00  0.00     0.211 HD
ENDBRANCH   2  22
BRANCH   3  24
ATOM     24  O   UNL     1      -4.587   1.734   0.185  1.00  0.00    -0.387 OA
ATOM     25  H   UNL     1      -4.808   0.800  -0.015  1.00  0.00     0.211 HD
ENDBRANCH   3  24
BRANCH   5  26
ATOM     26  O   UNL     1       0.055   0.635   0.440  1.00  0.00    -0.462 OA
BRANCH  26  27
ATOM     27  C   UNL     1       1.270   0.530   1.059  1.00  0.00     0.130 A 
ATOM     28  C   UNL     1       1.485   0.427   2.435  1.00  0.00     0.093 A 
ATOM     29  C   UNL     1       2.365   0.512   0.188  1.00  0.00     0.094 A 
ATOM     30  C   UNL     1       2.784   0.310   2.931  1.00  0.00     0.133 A 
ATOM     31  C   UNL     1       3.664   0.417   0.685  1.00  0.00     0.138 A 
ATOM     32  C   UNL     1       3.875   0.300   2.057  1.00  0.00     0.102 A 
ATOM     33  O   UNL     1       4.677   0.417  -0.239  1.00  0.00    -0.484 OA
ATOM     34  C   UNL     1       5.255   0.126   2.544  1.00  0.00     0.174 C 
ATOM     35  C   UNL     1       5.932   0.858   0.307  1.00  0.00     0.211 C 
ATOM     36  O   UNL     1       5.475   0.033   3.749  1.00  0.00    -0.294 OA
ATOM     37  C   UNL     1       6.331   0.006   1.504  1.00  0.00     0.131 C 
BRANCH  30  38
ATOM     38  O   UNL     1       2.917   0.197   4.289  1.00  0.00    -0.507 OA
ATOM     39  H   UNL     1       3.875   0.105   4.497  1.00  0.00     0.293 HD
ENDBRANCH  30  38
BRANCH  35  40
ATOM     40  C   UNL     1       6.993   0.784  -0.775  1.00  0.00    -0.003 A 
ATOM     41  C   UNL     1       7.019  -0.266  -1.706  1.00  0.00     0.057 A 
ATOM     42  C   UNL     1       8.000   1.759  -0.836  1.00  0.00     0.011 A 
ATOM     43  C   UNL     1       8.024  -0.322  -2.675  1.00  0.00     0.158 A 
ATOM     44  C   UNL     1       9.006   1.694  -1.809  1.00  0.00     0.051 A 
ATOM     45  C   UNL     1       9.028   0.653  -2.738  1.00  0.00     0.160 A 
BRANCH  43  46
ATOM     46  O   UNL     1       8.033  -1.351  -3.580  1.00  0.00    -0.504 OA
ATOM     47  H   UNL     1       7.243  -1.897  -3.447  1.00  0.00     0.293 HD
ENDBRANCH  43  46
BRANCH  45  48
ATOM     48  O   UNL     1       9.963   0.497  -3.726  1.00  0.00    -0.493 OA
ATOM     49  C   UNL     1      10.982   1.481  -3.824  1.00  0.00     0.278 C 
ENDBRANCH  45  48
ENDBRANCH  35  40
ENDBRANCH  26  27
ENDBRANCH   5  26
BRANCH   4  50
ATOM     50  O   UNL     1      -1.768   2.658  -0.385  1.00  0.00    -0.384 OA
ATOM     51  H   UNL     1      -2.558   2.990  -0.853  1.00  0.00     0.211 HD
ENDBRANCH   4  50
TORSDOF 15
