REMARK SMILES O=C1c2cccc(O)c2C(=O)c2c(O)cc(CO)cc21
REMARK SMILES IDX 5 1 4 2 3 3 9 4 7 5 6 6 10 7 11 8 12 9 20 10 2 11 1 12 19 13
REMARK SMILES IDX 16 14 15 15 13 16 8 17 14 19 17 21 18 22
REMARK H PARENT 8 18 14 20 18 23
ROOT
ATOM      1  C   UNL     1      -3.718   2.474  -0.002  1.00  0.00     0.005 A 
ATOM      2  C   UNL     1      -2.345   2.582  -0.223  1.00  0.00     0.013 A 
ATOM      3  C   UNL     1      -1.532   1.441  -0.167  1.00  0.00     0.037 A 
ATOM      4  C   UNL     1      -2.092   0.194   0.110  1.00  0.00     0.076 A 
ATOM      5  C   UNL     1      -3.473   0.096   0.331  1.00  0.00     0.127 A 
ATOM      6  C   UNL     1      -4.281   1.229   0.275  1.00  0.00     0.047 A 
ATOM      7  C   UNL     1      -1.229  -1.000   0.167  1.00  0.00     0.201 C 
ATOM      8  O   UNL     1      -1.719  -2.102   0.412  1.00  0.00    -0.288 OA
ATOM      9  C   UNL     1       0.221  -0.877  -0.068  1.00  0.00     0.076 A 
ATOM     10  C   UNL     1       0.776   0.371  -0.345  1.00  0.00     0.038 A 
ATOM     11  C   UNL     1      -0.081   1.573  -0.404  1.00  0.00     0.194 C 
ATOM     12  O   UNL     1       0.409   2.669  -0.648  1.00  0.00    -0.289 OA
ATOM     13  C   UNL     1       2.155   0.497  -0.568  1.00  0.00     0.019 A 
ATOM     14  C   UNL     1       2.990  -0.629  -0.527  1.00  0.00    -0.018 A 
ATOM     15  C   UNL     1       2.428  -1.878  -0.237  1.00  0.00     0.053 A 
ATOM     16  C   UNL     1       1.057  -2.000  -0.014  1.00  0.00     0.127 A 
ENDROOT
BRANCH   5  17
ATOM     17  O   UNL     1      -4.106  -1.086   0.608  1.00  0.00    -0.507 OA
ATOM     18  H   UNL     1      -3.435  -1.804   0.620  1.00  0.00     0.293 HD
ENDBRANCH   5  17
BRANCH  16  19
ATOM     19  O   UNL     1       0.601  -3.261   0.258  1.00  0.00    -0.507 OA
ATOM     20  H   UNL     1      -0.372  -3.220   0.391  1.00  0.00     0.293 HD
ENDBRANCH  16  19
BRANCH  14  21
ATOM     21  C   UNL     1       4.472  -0.485  -0.745  1.00  0.00     0.191 C 
BRANCH  21  22
ATOM     22  O   UNL     1       5.109  -0.055   0.448  1.00  0.00    -0.392 OA
ATOM     23  H   UNL     1       4.542  -0.298   1.199  1.00  0.00     0.211 HD
ENDBRANCH  21  22
ENDBRANCH  14  21
TORSDOF 4
