REMARK SMILES OCC1=C[C@@H](O)[C@@H]2C=CO[C@@H](O[C@@H]3O[C@H](CO)[C@@H](O)[C@H](O)[C@H]3O)[C@H]12
REMARK SMILES IDX 12 1 11 2 8 3 9 4 7 5 10 6 24 7 5 8 3 9 4 10 6 11 2 13 1 14
REMARK SMILES IDX 13 16 22 17 14 18 20 19 15 20 18 21 23 22 21 24 16 26 17 27
REMARK SMILES IDX 19 29
REMARK H PARENT 6 12 1 15 23 23 21 25 17 28 19 30
ROOT
ATOM      1  O   UNL     1      -0.134  -0.340  -0.593  1.00  0.00    -0.310 OA
ENDROOT
BRANCH   1   2
ATOM      2  C   UNL     1      -1.081   0.202   0.341  1.00  0.00     0.316 C 
ATOM      3  C   UNL     1      -3.196  -1.427  -0.428  1.00  0.00     0.018 C 
ATOM      4  C   UNL     1      -2.498  -1.659   0.687  1.00  0.00     0.186 C 
ATOM      5  C   UNL     1      -3.094  -0.127  -1.188  1.00  0.00     0.061 C 
ATOM      6  O   UNL     1      -1.583  -0.807   1.235  1.00  0.00    -0.472 OA
ATOM      7  C   UNL     1      -2.189   0.903  -0.467  1.00  0.00     0.096 C 
ATOM      8  C   UNL     1      -4.466   0.571  -1.282  1.00  0.00     0.145 C 
ATOM      9  C   UNL     1      -3.187   1.753   0.297  1.00  0.00    -0.036 C 
ATOM     10  C   UNL     1      -4.428   1.578  -0.179  1.00  0.00     0.007 C 
BRANCH   8  11
ATOM     11  O   UNL     1      -4.602   1.250  -2.520  1.00  0.00    -0.388 OA
ATOM     12  H   UNL     1      -5.401   1.800  -2.461  1.00  0.00     0.211 HD
ENDBRANCH   8  11
BRANCH   9  13
ATOM     13  C   UNL     1      -2.774   2.716   1.353  1.00  0.00     0.187 C 
BRANCH  13  14
ATOM     14  O   UNL     1      -2.288   2.010   2.481  1.00  0.00    -0.392 OA
ATOM     15  H   UNL     1      -2.868   1.239   2.613  1.00  0.00     0.211 HD
ENDBRANCH  13  14
ENDBRANCH   9  13
ENDBRANCH   1   2
BRANCH   1  16
ATOM     16  C   UNL     1       1.061  -0.784   0.049  1.00  0.00     0.286 C 
ATOM     17  C   UNL     1       1.858  -1.641  -0.957  1.00  0.00     0.202 C 
ATOM     18  O   UNL     1       1.820   0.364   0.443  1.00  0.00    -0.341 OA
ATOM     19  C   UNL     1       3.222  -2.000  -0.370  1.00  0.00     0.179 C 
ATOM     20  C   UNL     1       3.053   0.030   1.083  1.00  0.00     0.178 C 
ATOM     21  C   UNL     1       3.964  -0.761   0.130  1.00  0.00     0.177 C 
BRANCH  17  22
ATOM     22  O   UNL     1       1.174  -2.864  -1.277  1.00  0.00    -0.385 OA
ATOM     23  H   UNL     1       1.808  -3.372  -1.821  1.00  0.00     0.211 HD
ENDBRANCH  17  22
BRANCH  19  24
ATOM     24  O   UNL     1       4.009  -2.674  -1.368  1.00  0.00    -0.387 OA
ATOM     25  H   UNL     1       4.908  -2.723  -0.982  1.00  0.00     0.211 HD
ENDBRANCH  19  24
BRANCH  20  26
ATOM     26  C   UNL     1       3.715   1.340   1.533  1.00  0.00     0.191 C 
BRANCH  26  27
ATOM     27  O   UNL     1       4.984   1.093   2.134  1.00  0.00    -0.394 OA
ATOM     28  H   UNL     1       5.288   1.946   2.497  1.00  0.00     0.210 HD
ENDBRANCH  26  27
ENDBRANCH  20  26
BRANCH  21  29
ATOM     29  O   UNL     1       5.171  -1.208   0.760  1.00  0.00    -0.387 OA
ATOM     30  H   UNL     1       5.481  -0.464   1.324  1.00  0.00     0.211 HD
ENDBRANCH  21  29
ENDBRANCH   1  16
TORSDOF 10
