REMARK SMILES Oc1ccc(/C=C/c2cc(O)cc(O)c2)cc1
REMARK SMILES IDX 6 1 7 2 5 3 4 4 3 5 2 6 16 7 17 8 1 9 8 11 15 12 9 13 13 14
REMARK SMILES IDX 10 15 12 16 14 17 11 19
REMARK H PARENT 1 10 14 18 11 20
ROOT
ATOM      1  C   UNL     1      -0.509  -0.466   0.245  1.00  0.00     0.009 C 
ATOM      2  C   UNL     1       0.389   0.372  -0.298  1.00  0.00     0.009 C 
ENDROOT
BRANCH   1   3
ATOM      3  C   UNL     1      -1.964  -0.279   0.152  1.00  0.00    -0.025 A 
ATOM      4  C   UNL     1      -2.763  -0.631   1.249  1.00  0.00     0.012 A 
ATOM      5  C   UNL     1      -4.154  -0.494   1.193  1.00  0.00     0.047 A 
ATOM      6  C   UNL     1      -4.747  -0.014   0.031  1.00  0.00     0.115 A 
ATOM      7  C   UNL     1      -2.585   0.188  -1.015  1.00  0.00     0.012 A 
ATOM      8  C   UNL     1      -3.974   0.325  -1.072  1.00  0.00     0.047 A 
BRANCH   6   9
ATOM      9  O   UNL     1      -6.098   0.135  -0.069  1.00  0.00    -0.508 OA
ATOM     10  H   UNL     1      -6.503  -0.138   0.770  1.00  0.00     0.293 HD
ENDBRANCH   6   9
ENDBRANCH   1   3
BRANCH   2  11
ATOM     11  C   UNL     1       1.842   0.175  -0.199  1.00  0.00    -0.018 A 
ATOM     12  C   UNL     1       2.460  -0.185   1.007  1.00  0.00     0.054 A 
ATOM     13  C   UNL     1       2.635   0.406  -1.333  1.00  0.00     0.054 A 
ATOM     14  C   UNL     1       3.846  -0.333   1.060  1.00  0.00     0.119 A 
ATOM     15  C   UNL     1       4.018   0.250  -1.256  1.00  0.00     0.119 A 
ATOM     16  C   UNL     1       4.630  -0.121  -0.066  1.00  0.00     0.092 A 
BRANCH  14  17
ATOM     17  O   UNL     1       4.477  -0.684   2.218  1.00  0.00    -0.508 OA
ATOM     18  H   UNL     1       3.813  -0.784   2.919  1.00  0.00     0.293 HD
ENDBRANCH  14  17
BRANCH  15  19
ATOM     19  O   UNL     1       4.816   0.457  -2.344  1.00  0.00    -0.508 OA
ATOM     20  H   UNL     1       4.258   0.696  -3.102  1.00  0.00     0.293 HD
ENDBRANCH  15  19
ENDBRANCH   2  11
TORSDOF 5
