REMARK SMILES O=C(O)c1cc(O)c2c(c1)C(=O)c1cccc(O)c1C2=O
REMARK SMILES IDX 15 1 14 2 13 3 19 4 17 5 16 6 20 7 21 8 8 9 9 10 11 11 12 12
REMARK SMILES IDX 10 13 4 14 5 15 6 16 18 17 7 19 2 21 1 22 3 23
REMARK H PARENT 18 18 7 20 3 24
ROOT
ATOM      1  C   UNL     1      -4.059   1.477  -0.430  1.00  0.00     0.005 A 
ATOM      2  C   UNL     1      -2.762   1.925  -0.198  1.00  0.00     0.013 A 
ATOM      3  C   UNL     1      -1.694   1.014  -0.166  1.00  0.00     0.037 A 
ATOM      4  C   UNL     1      -1.918  -0.351  -0.364  1.00  0.00     0.076 A 
ATOM      5  C   UNL     1      -3.232  -0.789  -0.596  1.00  0.00     0.127 A 
ATOM      6  C   UNL     1      -4.295   0.119  -0.629  1.00  0.00     0.047 A 
ATOM      7  C   UNL     1      -0.763  -1.286  -0.322  1.00  0.00     0.201 C 
ATOM      8  O   UNL     1      -0.879  -2.497  -0.487  1.00  0.00    -0.288 OA
ATOM      9  C   UNL     1       0.598  -0.765  -0.073  1.00  0.00     0.076 A 
ATOM     10  C   UNL     1       0.803   0.598   0.123  1.00  0.00     0.038 A 
ATOM     11  C   UNL     1      -0.335   1.532   0.083  1.00  0.00     0.194 C 
ATOM     12  O   UNL     1      -0.152   2.731   0.255  1.00  0.00    -0.289 OA
ATOM     13  C   UNL     1       2.093   1.097   0.359  1.00  0.00     0.029 A 
ATOM     14  C   UNL     1       3.189   0.226   0.401  1.00  0.00     0.064 A 
ATOM     15  C   UNL     1       2.989  -1.143   0.205  1.00  0.00     0.062 A 
ATOM     16  C   UNL     1       1.703  -1.630  -0.029  1.00  0.00     0.128 A 
ENDROOT
BRANCH   5  17
ATOM     17  O   UNL     1      -3.505  -2.112  -0.796  1.00  0.00    -0.507 OA
ATOM     18  H   UNL     1      -4.455  -2.248  -0.942  1.00  0.00     0.293 HD
ENDBRANCH   5  17
BRANCH  16  19
ATOM     19  O   UNL     1       1.599  -2.984  -0.210  1.00  0.00    -0.507 OA
ATOM     20  H   UNL     1       0.649  -3.200  -0.366  1.00  0.00     0.293 HD
ENDBRANCH  16  19
BRANCH  14  21
ATOM     21  C   UNL     1       4.534   0.796   0.654  1.00  0.00     0.335 C 
ATOM     22  O   UNL     1       4.784   1.973   0.833  1.00  0.00    -0.246 OA
BRANCH  21  23
ATOM     23  O   UNL     1       5.500  -0.137   0.670  1.00  0.00    -0.478 OA
ATOM     24  H   UNL     1       6.321   0.371   0.844  1.00  0.00     0.297 HD
ENDBRANCH  21  23
ENDBRANCH  14  21
TORSDOF 4
