REMARK SMILES COc1cc2c(c(OC)c1OC)-c1c(cc3c(c1OC)OCO3)CC(C)C(C)C2
REMARK SMILES IDX 14 1 15 2 16 3 17 4 18 5 13 6 21 7 22 8 23 9 24 10 25 11
REMARK SMILES IDX 26 12 27 13 28 14 6 16 7 17 5 18 10 19 4 20 3 21 8 22 9 23
REMARK SMILES IDX 29 24 11 26 12 27 2 28 1 29 19 30 20 31
REMARK H PARENT
REMARK Flexibility Score:    8.900
ROOT
ATOM      1  C   UNL     1      -1.294   1.505   0.531  1.00  0.00    -0.032 A 
ATOM      2  C   UNL     1      -2.027   2.672   0.261  1.00  0.00     0.055 A 
ATOM      3  C   UNL     1      -1.889   3.255  -0.979  1.00  0.00     0.170 A 
ATOM      4  C   UNL     1      -1.071   2.727  -1.950  1.00  0.00     0.208 A 
ATOM      5  C   UNL     1      -0.320   1.584  -1.718  1.00  0.00     0.173 A 
ATOM      6  C   UNL     1      -0.419   0.952  -0.455  1.00  0.00     0.035 A 
ATOM      7  O   UNL     1      -1.134   3.447  -3.106  1.00  0.00    -0.450 OA
ATOM      8  C   UNL     1      -2.069   4.480  -2.747  1.00  0.00     0.468 C 
ATOM      9  O   UNL     1      -2.552   4.368  -1.395  1.00  0.00    -0.453 OA
ENDROOT
BRANCH   1  10
ATOM     10  C   UNL     1      -1.544   0.761   1.823  1.00  0.00     0.040 C 
BRANCH  10  11
ATOM     11  C   UNL     1      -2.666  -0.296   1.681  1.00  0.00    -0.007 C 
ATOM     12  C   UNL     1      -2.588  -1.271   2.861  1.00  0.00     0.008 C 
BRANCH  11  13
ATOM     13  C   UNL     1      -2.732  -1.005   0.292  1.00  0.00    -0.007 CG0
ATOM     14  C   UNL     1      -4.046  -1.800   0.154  1.00  0.00     0.008 C 
ATOM     15  G   UNL     1      -1.554  -1.938  -0.063  1.00  0.00     0.000 G0
ENDBRANCH  11  13
ENDBRANCH  10  11
ENDBRANCH   1  10
BRANCH   6  16
ATOM     16  C   UNL     1       0.424  -0.222  -0.125  1.00  0.00     0.035 A 
ATOM     17  C   UNL     1       1.825  -0.024   0.056  1.00  0.00     0.172 A 
ATOM     18  C   UNL     1      -0.101  -1.520   0.078  1.00  0.00    -0.032 A 
ATOM     19  C   UNL     1       2.700  -1.081   0.348  1.00  0.00     0.203 A 
ATOM     20  C   UNL     1       0.802  -2.575   0.349  1.00  0.00     0.055 A 
ATOM     21  C   UNL     1       2.178  -2.366   0.446  1.00  0.00     0.164 A 
BRANCH  17  22
ATOM     22  O   UNL     1       2.344   1.248  -0.101  1.00  0.00    -0.492 OA
ATOM     23  C   UNL     1       2.521   1.877   1.167  1.00  0.00     0.278 C 
ENDBRANCH  17  22
BRANCH  18  24
ATOM     24  C   UNL     1      -1.554  -1.938  -0.063  1.00  0.00     0.040 CG0
ATOM     25  G   UNL     1      -2.732  -1.005   0.292  1.00  0.00     0.000 G0
ENDBRANCH  18  24
BRANCH  19  26
ATOM     26  O   UNL     1       4.038  -0.797   0.458  1.00  0.00    -0.490 OA
ATOM     27  C   UNL     1       4.618  -1.288   1.666  1.00  0.00     0.278 C 
ENDBRANCH  19  26
BRANCH  21  28
ATOM     28  O   UNL     1       2.962  -3.470   0.663  1.00  0.00    -0.493 OA
ATOM     29  C   UNL     1       3.553  -3.891  -0.569  1.00  0.00     0.278 C 
ENDBRANCH  21  28
ENDBRANCH   6  16
BRANCH   5  30
ATOM     30  O   UNL     1       0.456   0.989  -2.678  1.00  0.00    -0.492 OA
ATOM     31  C   UNL     1       1.355   1.890  -3.319  1.00  0.00     0.278 C 
ENDBRANCH   5  30
TORSDOF 4
