REMARK SMILES COc1ccc(C[C@H]2COC(=O)[C@@H]2Cc2ccc(O[C@@H]3O[C@H](CO)[C@@H](O)[C@H](O)[C@H]3O)c(OC)c2)cc1OC
REMARK SMILES IDX 15 1 34 2 31 3 18 4 17 5 16 6 14 7 13 8 8 9 9 10 10 11 11 12
REMARK SMILES IDX 12 13 7 14 6 15 3 16 36 17 4 18 35 19 5 20 2 21 1 22 37 23
REMARK SMILES IDX 38 24 32 25 33 26 19 27 20 28 29 29 21 30 27 31 22 32 25 33
REMARK SMILES IDX 30 34 28 36 23 38 24 39 26 41
REMARK H PARENT 30 35 28 37 24 40 26 42
ROOT
ATOM      1  C   UNL     1      -0.125  -1.503   0.246  1.00  0.00    -0.043 A 
ATOM      2  C   UNL     1      -1.185  -1.465  -0.671  1.00  0.00     0.054 A 
ATOM      3  C   UNL     1      -2.341  -0.705  -0.418  1.00  0.00     0.161 A 
ATOM      4  C   UNL     1      -2.467  -0.010   0.792  1.00  0.00     0.164 A 
ATOM      5  C   UNL     1      -1.405  -0.057   1.706  1.00  0.00     0.051 A 
ATOM      6  C   UNL     1      -0.248  -0.791   1.441  1.00  0.00     0.008 A 
ENDROOT
BRANCH   1   7
ATOM      7  C   UNL     1       1.115  -2.315  -0.043  1.00  0.00     0.051 C 
BRANCH   7   8
ATOM      8  C   UNL     1       2.380  -1.457  -0.184  1.00  0.00     0.110 C 
ATOM      9  C   UNL     1       2.413  -0.580  -1.436  1.00  0.00     0.046 C 
ATOM     10  C   UNL     1       3.053  -1.498  -2.459  1.00  0.00     0.237 C 
ATOM     11  O   UNL     1       3.915  -2.368  -1.728  1.00  0.00    -0.465 OA
ATOM     12  C   UNL     1       3.545  -2.382  -0.415  1.00  0.00     0.309 C 
ATOM     13  O   UNL     1       4.058  -3.094   0.434  1.00  0.00    -0.252 OA
BRANCH   9  14
ATOM     14  C   UNL     1       3.169   0.758  -1.246  1.00  0.00     0.043 C 
BRANCH  14  15
ATOM     15  C   UNL     1       4.605   0.687  -0.789  1.00  0.00    -0.044 A 
ATOM     16  C   UNL     1       7.299   0.515   0.071  1.00  0.00     0.160 A 
ATOM     17  C   UNL     1       6.249   0.590   0.995  1.00  0.00     0.160 A 
ATOM     18  C   UNL     1       6.986   0.516  -1.289  1.00  0.00     0.051 A 
ATOM     19  C   UNL     1       4.921   0.707   0.574  1.00  0.00     0.054 A 
ATOM     20  C   UNL     1       5.653   0.598  -1.714  1.00  0.00     0.008 A 
BRANCH  16  21
ATOM     21  O   UNL     1       8.566   0.455   0.587  1.00  0.00    -0.493 OA
ATOM     22  C   UNL     1       9.646   0.410  -0.335  1.00  0.00     0.278 C 
ENDBRANCH  16  21
BRANCH  17  23
ATOM     23  O   UNL     1       6.471   0.610   2.351  1.00  0.00    -0.493 OA
ATOM     24  C   UNL     1       6.726  -0.714   2.823  1.00  0.00     0.278 C 
ENDBRANCH  17  23
ENDBRANCH  14  15
ENDBRANCH   9  14
ENDBRANCH   7   8
ENDBRANCH   1   7
BRANCH   3  25
ATOM     25  O   UNL     1      -3.365  -0.721  -1.332  1.00  0.00    -0.493 OA
ATOM     26  C   UNL     1      -2.940  -0.329  -2.641  1.00  0.00     0.278 C 
ENDBRANCH   3  25
BRANCH   4  27
ATOM     27  O   UNL     1      -3.511   0.741   1.255  1.00  0.00    -0.458 OA
BRANCH  27  28
ATOM     28  C   UNL     1      -4.703   0.893   0.486  1.00  0.00     0.339 C 
ATOM     29  C   UNL     1      -5.596  -0.379   0.615  1.00  0.00     0.214 C 
ATOM     30  O   UNL     1      -5.375   2.082   0.953  1.00  0.00    -0.332 OA
ATOM     31  C   UNL     1      -6.718  -0.186   1.642  1.00  0.00     0.180 C 
ATOM     32  C   UNL     1      -6.737   2.117   0.534  1.00  0.00     0.179 C 
ATOM     33  C   UNL     1      -7.561   1.057   1.294  1.00  0.00     0.177 C 
BRANCH  29  34
ATOM     34  O   UNL     1      -6.209  -0.695  -0.653  1.00  0.00    -0.384 OA
ATOM     35  H   UNL     1      -5.469  -0.961  -1.236  1.00  0.00     0.211 HD
ENDBRANCH  29  34
BRANCH  31  36
ATOM     36  O   UNL     1      -6.194  -0.067   2.967  1.00  0.00    -0.387 OA
ATOM     37  H   UNL     1      -5.681  -0.870   3.164  1.00  0.00     0.211 HD
ENDBRANCH  31  36
BRANCH  32  38
ATOM     38  C   UNL     1      -7.319   3.518   0.764  1.00  0.00     0.191 C 
BRANCH  38  39
ATOM     39  O   UNL     1      -8.606   3.661   0.168  1.00  0.00    -0.394 OA
ATOM     40  H   UNL     1      -9.123   2.857   0.380  1.00  0.00     0.210 HD
ENDBRANCH  38  39
ENDBRANCH  32  38
BRANCH  33  41
ATOM     41  O   UNL     1      -8.695   0.701   0.486  1.00  0.00    -0.387 OA
ATOM     42  H   UNL     1      -8.354   0.135  -0.237  1.00  0.00     0.211 HD
ENDBRANCH  33  41
ENDBRANCH  27  28
ENDBRANCH   4  27
TORSDOF 14
