REMARK SMILES O=C1CCC[C@@H]2[C@H]3CCCN4CCC[C@@H](CN12)[C@@H]34
REMARK SMILES IDX 4 1 5 2 6 3 7 4 8 5 9 6 10 7 11 8 18 9 15 10 14 11 13 12
REMARK SMILES IDX 12 13 16 14 17 15 2 16 1 17 3 18
REMARK H PARENT
ROOT
ATOM      1  C   UNL     1      -3.632   0.069  -0.430  1.00  0.00     0.012 C 
ATOM      2  C   UNL     1      -2.776   0.774   0.606  1.00  0.00     0.026 C 
ATOM      3  C   UNL     1      -1.343   0.226   0.597  1.00  0.00     0.089 C 
ATOM      4  C   UNL     1      -0.459   0.749  -0.573  1.00  0.00     0.029 C 
ATOM      5  C   UNL     1      -0.397   2.292  -0.563  1.00  0.00     0.008 C 
ATOM      6  C   UNL     1       0.996   2.809  -0.867  1.00  0.00     0.016 C 
ATOM      7  C   UNL     1       2.009   2.224   0.120  1.00  0.00     0.085 C 
ATOM      8  N   UNL     1       1.852   0.780   0.392  1.00  0.00    -0.300 NA
ATOM      9  C   UNL     1       0.973   0.106  -0.584  1.00  0.00     0.066 C 
ATOM     10  C   UNL     1       0.896  -1.433  -0.381  1.00  0.00     0.026 C 
ATOM     11  C   UNL     1       2.287  -2.057  -0.247  1.00  0.00     0.008 C 
ATOM     12  C   UNL     1       3.120  -1.332   0.800  1.00  0.00     0.016 C 
ATOM     13  C   UNL     1       3.183   0.160   0.495  1.00  0.00     0.085 C 
ATOM     14  C   UNL     1       0.004  -1.804   0.809  1.00  0.00     0.125 C 
ATOM     15  N   UNL     1      -1.317  -1.237   0.597  1.00  0.00    -0.339 N 
ATOM     16  C   UNL     1      -2.322  -2.042   0.086  1.00  0.00     0.222 C 
ATOM     17  O   UNL     1      -2.167  -3.243  -0.140  1.00  0.00    -0.275 OA
ATOM     18  C   UNL     1      -3.684  -1.411  -0.109  1.00  0.00     0.100 C 
ENDROOT
TORSDOF 0
