REMARK SMILES OC[C@H]1O[C@@H](OCCc2ccc(O)cc2)[C@H](O)[C@@H](O)[C@@H]1O
REMARK SMILES IDX 7 1 8 2 9 3 10 4 11 5 12 6 15 7 14 8 13 9 6 11 5 12 16 13
REMARK SMILES IDX 4 14 18 15 3 16 20 17 17 18 19 20 2 22 1 23 21 25
REMARK H PARENT 13 10 17 19 19 21 1 24 21 26
ROOT
ATOM      1  C   UNL     1       1.222   0.064  -1.209  1.00  0.00     0.168 C 
ENDROOT
BRANCH   1   2
ATOM      2  C   UNL     1       1.462  -0.902  -0.049  1.00  0.00     0.064 C 
BRANCH   2   3
ATOM      3  C   UNL     1       2.825  -0.714   0.566  1.00  0.00    -0.045 A 
ATOM      4  C   UNL     1       3.924  -1.452   0.104  1.00  0.00     0.007 A 
ATOM      5  C   UNL     1       5.190  -1.261   0.661  1.00  0.00     0.046 A 
ATOM      6  C   UNL     1       5.357  -0.327   1.678  1.00  0.00     0.115 A 
ATOM      7  C   UNL     1       3.015   0.225   1.590  1.00  0.00     0.007 A 
ATOM      8  C   UNL     1       4.280   0.417   2.145  1.00  0.00     0.046 A 
BRANCH   6   9
ATOM      9  O   UNL     1       6.576  -0.108   2.249  1.00  0.00    -0.508 OA
ATOM     10  H   UNL     1       7.220  -0.709   1.842  1.00  0.00     0.293 HD
ENDBRANCH   6   9
ENDBRANCH   2   3
ENDBRANCH   1   2
BRANCH   1  11
ATOM     11  O   UNL     1      -0.057  -0.177  -1.801  1.00  0.00    -0.350 OA
BRANCH  11  12
ATOM     12  C   UNL     1      -1.050   0.773  -1.406  1.00  0.00     0.281 C 
ATOM     13  C   UNL     1      -2.325   0.499  -2.258  1.00  0.00     0.202 C 
ATOM     14  O   UNL     1      -1.280   0.642   0.002  1.00  0.00    -0.341 OA
ATOM     15  C   UNL     1      -3.278  -0.433  -1.495  1.00  0.00     0.179 C 
ATOM     16  C   UNL     1      -2.561   1.130   0.392  1.00  0.00     0.178 C 
ATOM     17  C   UNL     1      -3.666   0.190  -0.137  1.00  0.00     0.177 C 
BRANCH  13  18
ATOM     18  O   UNL     1      -3.031   1.723  -2.537  1.00  0.00    -0.385 OA
ATOM     19  H   UNL     1      -2.525   2.189  -3.229  1.00  0.00     0.211 HD
ENDBRANCH  13  18
BRANCH  15  20
ATOM     20  O   UNL     1      -2.694  -1.727  -1.313  1.00  0.00    -0.387 OA
ATOM     21  H   UNL     1      -1.812  -1.612  -0.909  1.00  0.00     0.211 HD
ENDBRANCH  15  20
BRANCH  16  22
ATOM     22  C   UNL     1      -2.637   1.242   1.921  1.00  0.00     0.191 C 
BRANCH  22  23
ATOM     23  O   UNL     1      -3.820   1.911   2.346  1.00  0.00    -0.394 OA
ATOM     24  H   UNL     1      -4.569   1.561   1.821  1.00  0.00     0.210 HD
ENDBRANCH  22  23
ENDBRANCH  16  22
BRANCH  17  25
ATOM     25  O   UNL     1      -4.886   0.940  -0.232  1.00  0.00    -0.387 OA
ATOM     26  H   UNL     1      -4.805   1.508  -1.026  1.00  0.00     0.211 HD
ENDBRANCH  17  25
ENDBRANCH  11  12
ENDBRANCH   1  11
TORSDOF 10
