REMARK SMILES COc1cc(O)c2c(c1)C(=O)c1cc(C)cc(O)c1C2=O
REMARK SMILES IDX 15 1 14 2 13 3 12 4 19 5 17 6 16 7 20 8 21 9 7 10 8 11 10 12
REMARK SMILES IDX 11 13 9 14 3 15 4 16 5 17 18 18 6 20 2 22 1 23
REMARK H PARENT 18 19 6 21
ROOT
ATOM      1  C   UNL     1      -5.314  -1.283   0.110  1.00  0.00     0.044 C 
ATOM      2  C   UNL     1      -4.001  -0.560   0.031  1.00  0.00    -0.047 A 
ATOM      3  C   UNL     1      -2.796  -1.272   0.076  1.00  0.00     0.016 A 
ATOM      4  C   UNL     1      -1.568  -0.595   0.033  1.00  0.00     0.038 A 
ATOM      5  C   UNL     1      -1.536   0.797  -0.044  1.00  0.00     0.076 A 
ATOM      6  C   UNL     1      -2.742   1.508  -0.074  1.00  0.00     0.127 A 
ATOM      7  C   UNL     1      -3.964   0.837  -0.032  1.00  0.00     0.050 A 
ATOM      8  C   UNL     1      -0.241   1.499  -0.088  1.00  0.00     0.201 C 
ATOM      9  O   UNL     1      -0.208   2.727  -0.156  1.00  0.00    -0.288 OA
ATOM     10  C   UNL     1       1.018   0.732  -0.050  1.00  0.00     0.076 A 
ATOM     11  C   UNL     1       0.981  -0.658   0.028  1.00  0.00     0.041 A 
ATOM     12  C   UNL     1      -0.311  -1.370   0.074  1.00  0.00     0.194 C 
ATOM     13  O   UNL     1      -0.342  -2.593   0.146  1.00  0.00    -0.289 OA
ATOM     14  C   UNL     1       2.175  -1.391   0.065  1.00  0.00     0.059 A 
ATOM     15  C   UNL     1       3.411  -0.741   0.023  1.00  0.00     0.123 A 
ATOM     16  C   UNL     1       3.449   0.651  -0.056  1.00  0.00     0.093 A 
ATOM     17  C   UNL     1       2.259   1.380  -0.092  1.00  0.00     0.131 A 
ENDROOT
BRANCH   6  18
ATOM     18  O   UNL     1      -2.805   2.874  -0.143  1.00  0.00    -0.507 OA
ATOM     19  H   UNL     1      -1.889   3.227  -0.169  1.00  0.00     0.293 HD
ENDBRANCH   6  18
BRANCH  17  20
ATOM     20  O   UNL     1       2.389   2.741  -0.170  1.00  0.00    -0.507 OA
ATOM     21  H   UNL     1       1.491   3.141  -0.188  1.00  0.00     0.293 HD
ENDBRANCH  17  20
BRANCH  15  22
ATOM     22  O   UNL     1       4.495  -1.573   0.065  1.00  0.00    -0.497 OA
ATOM     23  C   UNL     1       5.780  -0.962   0.025  1.00  0.00     0.278 C 
ENDBRANCH  15  22
TORSDOF 3
