REMARK SMILES C=C[C@@H]1C2=CCOC(=O)C2=CO[C@H]1O[C@@H]1O[C@H](CO)[C@@H](O)[C@H](O)[C@H]1O
REMARK SMILES IDX 15 1 24 2 22 3 20 4 17 5 16 6 14 7 13 8 3 9 4 10 12 11 10 12
REMARK SMILES IDX 5 13 11 14 8 15 6 16 7 17 9 18 2 19 1 20 25 21 23 23 18 25
REMARK SMILES IDX 19 26 21 28
REMARK H PARENT 25 22 23 24 19 27 21 29
ROOT
ATOM      1  C   UNL     1      -1.429  -0.517  -0.206  1.00  0.00     0.286 C 
ATOM      2  C   UNL     1      -2.634  -0.915   0.660  1.00  0.00     0.202 C 
ATOM      3  C   UNL     1      -3.936  -0.846  -0.153  1.00  0.00     0.179 C 
ATOM      4  C   UNL     1      -3.802   0.012  -1.423  1.00  0.00     0.177 C 
ATOM      5  C   UNL     1      -2.790   1.170  -1.282  1.00  0.00     0.178 C 
ATOM      6  O   UNL     1      -1.551   0.835  -0.631  1.00  0.00    -0.341 OA
ENDROOT
BRANCH   1   7
ATOM      7  O   UNL     1      -0.269  -0.646   0.630  1.00  0.00    -0.310 OA
BRANCH   7   8
ATOM      8  C   UNL     1       0.943  -0.539  -0.129  1.00  0.00     0.320 C 
ATOM      9  C   UNL     1       2.117  -0.247   0.854  1.00  0.00     0.111 C 
ATOM     10  C   UNL     1       3.444  -0.299   0.104  1.00  0.00    -0.018 C 
ATOM     11  O   UNL     1       1.143  -1.770  -0.849  1.00  0.00    -0.471 OA
ATOM     12  C   UNL     1       3.504  -1.258  -0.974  1.00  0.00     0.098 C 
ATOM     13  C   UNL     1       4.539   0.427   0.366  1.00  0.00     0.019 C 
ATOM     14  C   UNL     1       2.409  -1.937  -1.351  1.00  0.00     0.206 C 
ATOM     15  C   UNL     1       4.778  -1.562  -1.671  1.00  0.00     0.341 C 
ATOM     16  C   UNL     1       5.811   0.285  -0.395  1.00  0.00     0.261 C 
ATOM     17  O   UNL     1       5.845  -0.800  -1.339  1.00  0.00    -0.458 OA
ATOM     18  O   UNL     1       4.872  -2.448  -2.514  1.00  0.00    -0.246 OA
BRANCH   9  19
ATOM     19  C   UNL     1       1.900   1.075   1.575  1.00  0.00    -0.020 C 
ATOM     20  C   UNL     1       1.859   1.213   2.908  1.00  0.00     0.005 C 
ENDBRANCH   9  19
ENDBRANCH   7   8
ENDBRANCH   1   7
BRANCH   2  21
ATOM     21  O   UNL     1      -2.458  -2.242   1.190  1.00  0.00    -0.385 OA
ATOM     22  H   UNL     1      -1.554  -2.250   1.560  1.00  0.00     0.211 HD
ENDBRANCH   2  21
BRANCH   3  23
ATOM     23  O   UNL     1      -5.014  -0.352   0.657  1.00  0.00    -0.387 OA
ATOM     24  H   UNL     1      -4.744   0.542   0.960  1.00  0.00     0.211 HD
ENDBRANCH   3  23
BRANCH   5  25
ATOM     25  C   UNL     1      -3.382   2.392  -0.560  1.00  0.00     0.191 C 
BRANCH  25  26
ATOM     26  O   UNL     1      -3.894   2.050   0.730  1.00  0.00    -0.394 OA
ATOM     27  H   UNL     1      -4.015   2.893   1.208  1.00  0.00     0.210 HD
ENDBRANCH  25  26
ENDBRANCH   5  25
BRANCH   4  28
ATOM     28  O   UNL     1      -3.351  -0.824  -2.506  1.00  0.00    -0.387 OA
ATOM     29  H   UNL     1      -4.035  -1.504  -2.650  1.00  0.00     0.211 HD
ENDBRANCH   4  28
TORSDOF 8
