REMARK SMILES O=c1cc(-c2ccc(O)cc2)oc2cc(O)cc(O)c12
REMARK SMILES IDX 4 1 3 2 2 3 1 4 20 5 18 6 17 7 15 8 14 9 13 10 12 11 5 12
REMARK SMILES IDX 6 13 7 14 8 15 11 16 10 17 9 18 19 20 16 22
REMARK H PARENT 9 19 19 21 16 23
ROOT
ATOM      1  C   UNL     1       0.472  -0.470  -0.309  1.00  0.00     0.138 C 
ATOM      2  C   UNL     1      -0.127  -1.466  -0.980  1.00  0.00     0.100 C 
ATOM      3  C   UNL     1      -1.592  -1.469  -1.092  1.00  0.00     0.197 C 
ATOM      4  O   UNL     1      -2.191  -2.357  -1.689  1.00  0.00    -0.289 OA
ATOM      5  C   UNL     1      -2.314  -0.361  -0.457  1.00  0.00     0.107 A 
ATOM      6  C   UNL     1      -3.709  -0.270  -0.504  1.00  0.00     0.134 A 
ATOM      7  C   UNL     1      -4.364   0.797   0.109  1.00  0.00     0.093 A 
ATOM      8  C   UNL     1      -3.612   1.767   0.766  1.00  0.00     0.123 A 
ATOM      9  C   UNL     1      -2.223   1.686   0.819  1.00  0.00     0.094 A 
ATOM     10  C   UNL     1      -1.573   0.616   0.204  1.00  0.00     0.146 A 
ATOM     11  O   UNL     1      -0.203   0.586   0.284  1.00  0.00    -0.456 OA
ENDROOT
BRANCH   1  12
ATOM     12  C   UNL     1       1.940  -0.403  -0.168  1.00  0.00     0.018 A 
ATOM     13  C   UNL     1       2.602   0.827  -0.314  1.00  0.00     0.016 A 
ATOM     14  C   UNL     1       3.991   0.916  -0.177  1.00  0.00     0.047 A 
ATOM     15  C   UNL     1       4.723  -0.229   0.115  1.00  0.00     0.115 A 
ATOM     16  C   UNL     1       2.702  -1.542   0.136  1.00  0.00     0.016 A 
ATOM     17  C   UNL     1       4.090  -1.455   0.274  1.00  0.00     0.047 A 
BRANCH  15  18
ATOM     18  O   UNL     1       6.077  -0.190   0.259  1.00  0.00    -0.508 OA
ATOM     19  H   UNL     1       6.378   0.724   0.130  1.00  0.00     0.293 HD
ENDBRANCH  15  18
ENDBRANCH   1  12
BRANCH   6  20
ATOM     20  O   UNL     1      -4.496  -1.194  -1.136  1.00  0.00    -0.507 OA
ATOM     21  H   UNL     1      -3.909  -1.884  -1.522  1.00  0.00     0.293 HD
ENDBRANCH   6  20
BRANCH   8  22
ATOM     22  O   UNL     1      -4.207   2.829   1.380  1.00  0.00    -0.508 OA
ATOM     23  H   UNL     1      -5.171   2.755   1.270  1.00  0.00     0.293 HD
ENDBRANCH   8  22
TORSDOF 4
