REMARK SMILES O=c1c(O)c(-c2ccc(O)cc2)oc2cc(O)cc(O)c12
REMARK SMILES IDX 5 1 3 2 2 3 1 4 21 5 19 6 18 7 16 8 15 9 14 10 13 11 6 12
REMARK SMILES IDX 7 13 8 14 9 15 12 16 11 17 10 18 4 20 20 22 17 24
REMARK H PARENT 10 19 4 21 20 23 17 25
ROOT
ATOM      1  C   UNL     1       0.469  -0.189  -0.328  1.00  0.00     0.180 C 
ATOM      2  C   UNL     1       0.002  -1.033  -1.267  1.00  0.00     0.208 C 
ATOM      3  C   UNL     1      -1.448  -1.331  -1.293  1.00  0.00     0.238 C 
ATOM      4  O   UNL     1      -1.912  -2.099  -2.132  1.00  0.00    -0.285 OA
ATOM      5  C   UNL     1      -2.291  -0.679  -0.289  1.00  0.00     0.111 A 
ATOM      6  C   UNL     1      -3.672  -0.891  -0.237  1.00  0.00     0.134 A 
ATOM      7  C   UNL     1      -4.437  -0.251   0.733  1.00  0.00     0.093 A 
ATOM      8  C   UNL     1      -3.817   0.597   1.647  1.00  0.00     0.123 A 
ATOM      9  C   UNL     1      -2.442   0.815   1.606  1.00  0.00     0.094 A 
ATOM     10  C   UNL     1      -1.680   0.170   0.630  1.00  0.00     0.146 A 
ATOM     11  O   UNL     1      -0.330   0.418   0.635  1.00  0.00    -0.452 OA
ENDROOT
BRANCH   1  12
ATOM     12  C   UNL     1       1.897   0.171  -0.198  1.00  0.00     0.021 A 
ATOM     13  C   UNL     1       2.508   0.157   1.066  1.00  0.00     0.016 A 
ATOM     14  C   UNL     1       3.849   0.517   1.215  1.00  0.00     0.047 A 
ATOM     15  C   UNL     1       4.587   0.899   0.102  1.00  0.00     0.115 A 
ATOM     16  C   UNL     1       2.661   0.570  -1.306  1.00  0.00     0.016 A 
ATOM     17  C   UNL     1       4.004   0.931  -1.160  1.00  0.00     0.047 A 
BRANCH  15  18
ATOM     18  O   UNL     1       5.892   1.242   0.291  1.00  0.00    -0.508 OA
ATOM     19  H   UNL     1       6.282   1.464  -0.570  1.00  0.00     0.293 HD
ENDBRANCH  15  18
ENDBRANCH   1  12
BRANCH   2  20
ATOM     20  O   UNL     1       0.791  -1.663  -2.212  1.00  0.00    -0.502 OA
ATOM     21  H   UNL     1       0.177  -2.231  -2.725  1.00  0.00     0.293 HD
ENDBRANCH   2  20
BRANCH   6  22
ATOM     22  O   UNL     1      -4.334  -1.712  -1.108  1.00  0.00    -0.507 OA
ATOM     23  H   UNL     1      -3.681  -2.099  -1.732  1.00  0.00     0.293 HD
ENDBRANCH   6  22
BRANCH   8  24
ATOM     24  O   UNL     1      -4.603   1.205   2.581  1.00  0.00    -0.508 OA
ATOM     25  H   UNL     1      -4.051   1.768   3.149  1.00  0.00     0.293 HD
ENDBRANCH   8  24
TORSDOF 5
