REMARK SMILES COc1cc(/C=C/C(=O)O)ccc1O
REMARK SMILES IDX 6 1 7 2 5 3 3 4 13 5 4 6 12 7 11 8 2 9 1 10 14 11 8 13 9 14
REMARK SMILES IDX 10 15
REMARK H PARENT 14 12 10 16
ROOT
ATOM      1  C   UNL     1       1.888  -0.597   0.016  1.00  0.00     0.016 C 
ATOM      2  C   UNL     1       2.418   0.197  -0.926  1.00  0.00     0.094 C 
ENDROOT
BRANCH   1   3
ATOM      3  C   UNL     1       0.543  -0.415   0.578  1.00  0.00    -0.021 A 
ATOM      4  C   UNL     1      -1.826   0.090   0.348  1.00  0.00     0.161 A 
ATOM      5  C   UNL     1      -1.985  -0.153   1.717  1.00  0.00     0.157 A 
ATOM      6  C   UNL     1      -0.557  -0.048  -0.218  1.00  0.00     0.058 A 
ATOM      7  C   UNL     1      -0.916  -0.531   2.517  1.00  0.00     0.051 A 
ATOM      8  C   UNL     1       0.348  -0.668   1.944  1.00  0.00     0.012 A 
BRANCH   4   9
ATOM      9  O   UNL     1      -2.975   0.445  -0.312  1.00  0.00    -0.493 OA
ATOM     10  C   UNL     1      -2.859   0.694  -1.708  1.00  0.00     0.278 C 
ENDBRANCH   4   9
BRANCH   5  11
ATOM     11  O   UNL     1      -3.216  -0.026   2.301  1.00  0.00    -0.504 OA
ATOM     12  H   UNL     1      -3.813   0.237   1.574  1.00  0.00     0.293 HD
ENDBRANCH   5  11
ENDBRANCH   1   3
BRANCH   2  13
ATOM     13  C   UNL     1       3.779  -0.060  -1.411  1.00  0.00     0.328 C 
ATOM     14  O   UNL     1       4.542  -0.936  -1.054  1.00  0.00    -0.247 OA
BRANCH  13  15
ATOM     15  O   UNL     1       4.107   0.836  -2.356  1.00  0.00    -0.478 OA
ATOM     16  H   UNL     1       5.020   0.585  -2.608  1.00  0.00     0.297 HD
ENDBRANCH  13  15
ENDBRANCH   2  13
TORSDOF 5
