REMARK SMILES O=C1C[C@@H](c2ccc(O)cc2)Oc2cc(O)cc(O)c21
REMARK SMILES IDX 3 1 4 2 12 3 13 4 14 5 15 6 17 7 18 8 20 9 2 10 1 11 5 12
REMARK SMILES IDX 6 13 11 14 7 15 10 16 8 17 9 18 19 20 16 22
REMARK H PARENT 9 19 19 21 16 23
ROOT
ATOM      1  C   UNL     1       0.246   1.368   0.515  1.00  0.00     0.131 C 
ATOM      2  C   UNL     1       0.425   0.146  -0.376  1.00  0.00     0.211 C 
ATOM      3  O   UNL     1      -0.336  -0.967   0.121  1.00  0.00    -0.484 OA
ATOM      4  C   UNL     1      -1.670  -0.686   0.257  1.00  0.00     0.138 A 
ATOM      5  C   UNL     1      -2.543  -1.772   0.236  1.00  0.00     0.093 A 
ATOM      6  C   UNL     1      -3.913  -1.556   0.363  1.00  0.00     0.123 A 
ATOM      7  C   UNL     1      -4.427  -0.272   0.521  1.00  0.00     0.093 A 
ATOM      8  C   UNL     1      -3.550   0.809   0.563  1.00  0.00     0.133 A 
ATOM      9  C   UNL     1      -2.171   0.605   0.438  1.00  0.00     0.102 A 
ATOM     10  C   UNL     1      -1.213   1.722   0.532  1.00  0.00     0.174 C 
ATOM     11  O   UNL     1      -1.623   2.872   0.671  1.00  0.00    -0.294 OA
ENDROOT
BRANCH   2  12
ATOM     12  C   UNL     1       1.889  -0.250  -0.446  1.00  0.00    -0.007 A 
ATOM     13  C   UNL     1       2.678   0.165  -1.531  1.00  0.00     0.011 A 
ATOM     14  C   UNL     1       2.491  -1.000   0.578  1.00  0.00     0.011 A 
ATOM     15  C   UNL     1       4.033  -0.170  -1.598  1.00  0.00     0.046 A 
ATOM     16  C   UNL     1       3.845  -1.334   0.512  1.00  0.00     0.046 A 
ATOM     17  C   UNL     1       4.605  -0.918  -0.574  1.00  0.00     0.115 A 
BRANCH  17  18
ATOM     18  O   UNL     1       5.922  -1.266  -0.597  1.00  0.00    -0.508 OA
ATOM     19  H   UNL     1       6.320  -0.923  -1.414  1.00  0.00     0.293 HD
ENDBRANCH  17  18
ENDBRANCH   2  12
BRANCH   8  20
ATOM     20  O   UNL     1      -4.107   2.047   0.738  1.00  0.00    -0.507 OA
ATOM     21  H   UNL     1      -3.380   2.710   0.768  1.00  0.00     0.293 HD
ENDBRANCH   8  20
BRANCH   6  22
ATOM     22  O   UNL     1      -4.732  -2.646   0.326  1.00  0.00    -0.508 OA
ATOM     23  H   UNL     1      -5.652  -2.352   0.435  1.00  0.00     0.293 HD
ENDBRANCH   6  22
TORSDOF 4
