REMARK SMILES CC1(C)CC[C@]2(C(=O)O)CC[C@]3(C)C(=CC[C@@H]4[C@@]5(C)CC[C@H](O)C(C)(C)[C@@H]5CC[C@]43C)[C@@H]2C1
REMARK SMILES IDX 19 1 18 2 20 3 21 4 22 5 24 6 27 7 28 8 29 9 30 10 17 11
REMARK SMILES IDX 16 12 15 13 14 14 12 15 11 16 10 17 6 18 32 19 33 20 2 21
REMARK SMILES IDX 4 22 5 23 1 24 3 25 13 26 31 27 25 28 26 29 23 30 7 32 8 33
REMARK SMILES IDX 9 34
REMARK H PARENT 23 31 9 35
ROOT
ATOM      1  C   UNL     1       3.206   0.246   1.947  1.00  0.00     0.012 C 
ATOM      2  C   UNL     1       2.777  -0.484   0.651  1.00  0.00    -0.025 C 
ATOM      3  C   UNL     1       3.144  -2.000   0.821  1.00  0.00     0.010 C 
ATOM      4  C   UNL     1       4.388  -2.466   0.056  1.00  0.00     0.033 C 
ATOM      5  C   UNL     1       5.521  -1.447   0.056  1.00  0.00     0.120 C 
ATOM      6  C   UNL     1       5.096  -0.096  -0.609  1.00  0.00    -0.006 C 
ATOM      7  C   UNL     1       3.523   0.079  -0.608  1.00  0.00     0.003 C 
ATOM      8  C   UNL     1       3.047   1.502  -0.963  1.00  0.00     0.005 C 
ATOM      9  C   UNL     1       1.547   1.533  -1.268  1.00  0.00     0.008 C 
ATOM     10  C   UNL     1       0.643   1.006  -0.120  1.00  0.00    -0.020 C 
ATOM     11  C   UNL     1       1.209  -0.377   0.381  1.00  0.00     0.006 C 
ATOM     12  C   UNL     1       0.317  -0.985   1.487  1.00  0.00     0.032 C 
ATOM     13  C   UNL     1      -1.143  -0.636   1.418  1.00  0.00    -0.027 C 
ATOM     14  C   UNL     1      -1.734   0.170   0.511  1.00  0.00    -0.063 C 
ATOM     15  C   UNL     1      -0.889   0.775  -0.625  1.00  0.00    -0.006 C 
ATOM     16  C   UNL     1      -1.549   2.109  -1.066  1.00  0.00     0.013 C 
ATOM     17  C   UNL     1      -2.983   1.945  -1.576  1.00  0.00     0.020 C 
ATOM     18  C   UNL     1      -3.919   1.150  -0.615  1.00  0.00     0.074 C 
ATOM     19  C   UNL     1      -3.183   0.683   0.692  1.00  0.00     0.033 C 
ATOM     20  C   UNL     1      -4.137  -0.222   1.527  1.00  0.00     0.015 C 
ATOM     21  C   UNL     1      -4.690  -1.466   0.786  1.00  0.00    -0.035 C 
ATOM     22  C   UNL     1      -4.365  -1.414  -0.717  1.00  0.00     0.007 C 
ATOM     23  C   UNL     1      -4.617  -0.043  -1.345  1.00  0.00     0.020 C 
ATOM     24  C   UNL     1      -4.096  -2.760   1.374  1.00  0.00     0.011 C 
ATOM     25  C   UNL     1      -6.219  -1.533   0.991  1.00  0.00     0.011 C 
ATOM     26  C   UNL     1      -0.950  -0.210  -1.832  1.00  0.00     0.017 C 
ATOM     27  C   UNL     1       0.655   2.079   1.009  1.00  0.00     0.012 C 
ATOM     28  C   UNL     1       5.555  -0.166  -2.095  1.00  0.00     0.014 C 
ATOM     29  C   UNL     1       5.846   1.100   0.014  1.00  0.00     0.014 C 
ENDROOT
BRANCH   5  30
ATOM     30  O   UNL     1       5.970  -1.297   1.400  1.00  0.00    -0.393 OA
ATOM     31  H   UNL     1       6.840  -0.864   1.376  1.00  0.00     0.210 HD
ENDBRANCH   5  30
BRANCH  18  32
ATOM     32  C   UNL     1      -5.009   2.168  -0.219  1.00  0.00     0.310 C 
ATOM     33  O   UNL     1      -5.148   2.729   0.855  1.00  0.00    -0.252 OA
BRANCH  32  34
ATOM     34  O   UNL     1      -5.843   2.485  -1.234  1.00  0.00    -0.481 OA
ATOM     35  H   UNL     1      -6.444   3.153  -0.841  1.00  0.00     0.296 HD
ENDBRANCH  32  34
ENDBRANCH  18  32
TORSDOF 3
