REMARK SMILES O=C(O)c1cc(O)c(O)c(O)c1
REMARK SMILES IDX 5 1 4 2 12 3 10 4 8 5 6 6 2 7 1 8 3 9 7 11 9 13 11 15
REMARK H PARENT 3 10 7 12 9 14 11 16
ROOT
ATOM      1  C   UNL     1       0.283   1.201   0.292  1.00  0.00     0.066 A 
ATOM      2  C   UNL     1       0.996  -0.007   0.254  1.00  0.00     0.067 A 
ATOM      3  C   UNL     1       0.355  -1.198  -0.128  1.00  0.00     0.066 A 
ATOM      4  C   UNL     1      -0.997  -1.174  -0.470  1.00  0.00     0.162 A 
ATOM      5  C   UNL     1      -1.703   0.026  -0.432  1.00  0.00     0.200 A 
ATOM      6  C   UNL     1      -1.063   1.205  -0.053  1.00  0.00     0.162 A 
ENDROOT
BRANCH   2   7
ATOM      7  C   UNL     1       2.430   0.022   0.628  1.00  0.00     0.335 C 
ATOM      8  O   UNL     1       3.052   1.011   0.968  1.00  0.00    -0.246 OA
BRANCH   7   9
ATOM      9  O   UNL     1       3.014  -1.186   0.557  1.00  0.00    -0.478 OA
ATOM     10  H   UNL     1       3.942  -1.017   0.826  1.00  0.00     0.297 HD
ENDBRANCH   7   9
ENDBRANCH   2   7
BRANCH   6  11
ATOM     11  O   UNL     1      -1.806   2.355  -0.033  1.00  0.00    -0.504 OA
ATOM     12  H   UNL     1      -1.234   3.090   0.248  1.00  0.00     0.293 HD
ENDBRANCH   6  11
BRANCH   5  13
ATOM     13  O   UNL     1      -3.029   0.067  -0.765  1.00  0.00    -0.502 OA
ATOM     14  H   UNL     1      -3.286   1.003  -0.660  1.00  0.00     0.293 HD
ENDBRANCH   5  13
BRANCH   4  15
ATOM     15  O   UNL     1      -1.638  -2.320  -0.844  1.00  0.00    -0.504 OA
ATOM     16  H   UNL     1      -1.016  -3.064  -0.820  1.00  0.00     0.293 HD
ENDBRANCH   4  15
TORSDOF 5
