REMARK SMILES Cc1cc(O)c2c(c1)C(=O)c1cc(O)cc(O)c1C2=O
REMARK SMILES IDX 1 1 2 2 8 3 7 4 6 5 4 6 3 7 19 8 20 9 18 10 11 11 9 12 10 13
REMARK SMILES IDX 12 14 13 15 15 16 16 17 5 18 17 20 14 22
REMARK H PARENT 5 19 17 21 14 23
ROOT
ATOM      1  C   UNL     1      -4.522   1.729  -0.196  1.00  0.00     0.044 C 
ATOM      2  C   UNL     1      -3.276   0.893  -0.211  1.00  0.00    -0.047 A 
ATOM      3  C   UNL     1      -2.015   1.496  -0.120  1.00  0.00     0.016 A 
ATOM      4  C   UNL     1      -0.851   0.712  -0.103  1.00  0.00     0.038 A 
ATOM      5  C   UNL     1      -0.940  -0.677  -0.165  1.00  0.00     0.076 A 
ATOM      6  C   UNL     1      -2.201  -1.280  -0.241  1.00  0.00     0.127 A 
ATOM      7  C   UNL     1      -3.359  -0.503  -0.259  1.00  0.00     0.050 A 
ATOM      8  C   UNL     1       0.289  -1.492  -0.146  1.00  0.00     0.201 C 
ATOM      9  O   UNL     1       0.214  -2.719  -0.200  1.00  0.00    -0.288 OA
ATOM     10  C   UNL     1       1.609  -0.839  -0.061  1.00  0.00     0.076 A 
ATOM     11  C   UNL     1       1.691   0.552   0.002  1.00  0.00     0.041 A 
ATOM     12  C   UNL     1       0.466   1.375  -0.015  1.00  0.00     0.194 C 
ATOM     13  O   UNL     1       0.545   2.596   0.043  1.00  0.00    -0.289 OA
ATOM     14  C   UNL     1       2.939   1.187   0.084  1.00  0.00     0.059 A 
ATOM     15  C   UNL     1       4.096   0.416   0.100  1.00  0.00     0.120 A 
ATOM     16  C   UNL     1       4.030  -0.971   0.037  1.00  0.00     0.093 A 
ATOM     17  C   UNL     1       2.788  -1.597  -0.043  1.00  0.00     0.131 A 
ENDROOT
BRANCH   6  18
ATOM     18  O   UNL     1      -2.383  -2.635  -0.299  1.00  0.00    -0.507 OA
ATOM     19  H   UNL     1      -1.501  -3.069  -0.282  1.00  0.00     0.293 HD
ENDBRANCH   6  18
BRANCH  17  20
ATOM     20  O   UNL     1       2.800  -2.965  -0.101  1.00  0.00    -0.507 OA
ATOM     21  H   UNL     1       1.872  -3.284  -0.155  1.00  0.00     0.293 HD
ENDBRANCH  17  20
BRANCH  15  22
ATOM     22  O   UNL     1       5.330   0.991   0.178  1.00  0.00    -0.508 OA
ATOM     23  H   UNL     1       5.234   1.958   0.216  1.00  0.00     0.293 HD
ENDBRANCH  15  22
TORSDOF 3
