REMARK SMILES C[C@@H]1O[C@@H](OC[C@H]2O[C@@H](Oc3c(-c4ccc(O)c(O)c4)oc4cc(O)cc(O)c4c3=O)[C@H](O)[C@@H](O)[C@@H]2O)[C@H](O)[C@H](O)[C@H]1O
REMARK SMILES IDX 7 1 36 2 34 3 32 4 9 5 8 6 6 7 5 8 4 9 2 10 42 11 3 12 40 13
REMARK SMILES IDX 38 14 1 15 43 16 41 18 39 20 37 22 35 24 10 26 11 27 12 28
REMARK SMILES IDX 30 29 21 30 29 31 31 32 22 33 27 34 23 35 26 36 24 37 13 38
REMARK SMILES IDX 20 39 14 40 18 41 15 42 16 43 19 44 17 46 28 48 25 50 33 52
REMARK H PARENT 43 17 41 19 39 21 37 23 35 25 19 45 17 47 28 49 25 51 33 53
ROOT
ATOM      1  C   UNL     1       1.309   0.446  -2.188  1.00  0.00     0.180 C 
ATOM      2  C   UNL     1       1.717   1.778  -1.540  1.00  0.00     0.177 C 
ATOM      3  C   UNL     1       1.050   2.928  -2.284  1.00  0.00     0.180 C 
ATOM      4  C   UNL     1      -0.473   2.815  -2.175  1.00  0.00     0.214 C 
ATOM      5  C   UNL     1      -0.952   1.339  -2.159  1.00  0.00     0.339 C 
ATOM      6  O   UNL     1      -0.007   0.434  -2.743  1.00  0.00    -0.332 OA
ENDROOT
BRANCH   1   7
ATOM      7  C   UNL     1       1.508  -0.721  -1.211  1.00  0.00     0.198 C 
BRANCH   7   8
ATOM      8  O   UNL     1       2.886  -0.787  -0.813  1.00  0.00    -0.347 OA
BRANCH   8   9
ATOM      9  C   UNL     1       3.086  -1.781   0.198  1.00  0.00     0.281 C 
ATOM     10  C   UNL     1       3.340  -0.184   1.969  1.00  0.00     0.150 C 
ATOM     11  C   UNL     1       4.826  -0.525   2.157  1.00  0.00     0.174 C 
ATOM     12  O   UNL     1       2.614  -1.312   1.470  1.00  0.00    -0.344 OA
ATOM     13  C   UNL     1       5.405  -1.023   0.828  1.00  0.00     0.179 C 
ATOM     14  C   UNL     1       4.574  -2.175   0.265  1.00  0.00     0.202 C 
ATOM     15  C   UNL     1       2.682   0.225   3.284  1.00  0.00     0.041 C 
BRANCH  11  16
ATOM     16  O   UNL     1       5.598   0.609   2.570  1.00  0.00    -0.388 OA
ATOM     17  H   UNL     1       5.361   0.807   3.494  1.00  0.00     0.211 HD
ENDBRANCH  11  16
BRANCH  13  18
ATOM     18  O   UNL     1       6.753  -1.478   1.042  1.00  0.00    -0.387 OA
ATOM     19  H   UNL     1       7.200  -0.732   1.490  1.00  0.00     0.211 HD
ENDBRANCH  13  18
BRANCH  14  20
ATOM     20  O   UNL     1       4.757  -3.330   1.104  1.00  0.00    -0.385 OA
ATOM     21  H   UNL     1       5.728  -3.387   1.230  1.00  0.00     0.211 HD
ENDBRANCH  14  20
ENDBRANCH   8   9
ENDBRANCH   7   8
ENDBRANCH   1   7
BRANCH   2  22
ATOM     22  O   UNL     1       3.141   1.958  -1.567  1.00  0.00    -0.387 OA
ATOM     23  H   UNL     1       3.528   1.110  -1.269  1.00  0.00     0.211 HD
ENDBRANCH   2  22
BRANCH   3  24
ATOM     24  O   UNL     1       1.495   4.167  -1.702  1.00  0.00    -0.387 OA
ATOM     25  H   UNL     1       2.470   4.094  -1.679  1.00  0.00     0.211 HD
ENDBRANCH   3  24
BRANCH   5  26
ATOM     26  O   UNL     1      -1.249   0.941  -0.811  1.00  0.00    -0.454 OA
BRANCH  26  27
ATOM     27  C   UNL     1      -2.595   0.699  -0.571  1.00  0.00     0.214 C 
ATOM     28  C   UNL     1      -3.010  -0.415   0.061  1.00  0.00     0.180 C 
ATOM     29  C   UNL     1      -3.639   1.697  -0.951  1.00  0.00     0.239 C 
ATOM     30  O   UNL     1      -4.322  -0.734   0.353  1.00  0.00    -0.452 OA
ATOM     31  C   UNL     1      -5.034   1.373  -0.617  1.00  0.00     0.111 A 
ATOM     32  O   UNL     1      -3.372   2.752  -1.522  1.00  0.00    -0.285 OA
ATOM     33  C   UNL     1      -5.302   0.162   0.017  1.00  0.00     0.146 A 
ATOM     34  C   UNL     1      -6.087   2.243  -0.922  1.00  0.00     0.134 A 
ATOM     35  C   UNL     1      -6.613  -0.190   0.345  1.00  0.00     0.094 A 
ATOM     36  C   UNL     1      -7.396   1.898  -0.597  1.00  0.00     0.093 A 
ATOM     37  C   UNL     1      -7.650   0.684   0.033  1.00  0.00     0.123 A 
BRANCH  28  38
ATOM     38  C   UNL     1      -2.061  -1.449   0.493  1.00  0.00     0.025 A 
ATOM     39  C   UNL     1      -1.869  -2.593  -0.291  1.00  0.00     0.062 A 
ATOM     40  C   UNL     1      -1.331  -1.289   1.683  1.00  0.00     0.016 A 
ATOM     41  C   UNL     1      -0.940  -3.542   0.111  1.00  0.00     0.158 A 
ATOM     42  C   UNL     1      -0.399  -2.253   2.078  1.00  0.00     0.051 A 
ATOM     43  C   UNL     1      -0.201  -3.370   1.277  1.00  0.00     0.157 A 
BRANCH  41  44
ATOM     44  O   UNL     1      -0.735  -4.645  -0.667  1.00  0.00    -0.504 OA
ATOM     45  H   UNL     1      -0.066  -5.169  -0.181  1.00  0.00     0.293 HD
ENDBRANCH  41  44
BRANCH  43  46
ATOM     46  O   UNL     1       0.735  -4.318   1.582  1.00  0.00    -0.504 OA
ATOM     47  H   UNL     1       1.326  -3.948   2.263  1.00  0.00     0.293 HD
ENDBRANCH  43  46
ENDBRANCH  28  38
BRANCH  34  48
ATOM     48  O   UNL     1      -5.906   3.451  -1.538  1.00  0.00    -0.507 OA
ATOM     49  H   UNL     1      -4.946   3.578  -1.701  1.00  0.00     0.293 HD
ENDBRANCH  34  48
BRANCH  37  50
ATOM     50  O   UNL     1      -8.945   0.383   0.333  1.00  0.00    -0.508 OA
ATOM     51  H   UNL     1      -8.985  -0.491   0.754  1.00  0.00     0.293 HD
ENDBRANCH  37  50
ENDBRANCH  26  27
ENDBRANCH   5  26
BRANCH   4  52
ATOM     52  O   UNL     1      -1.073   3.518  -3.279  1.00  0.00    -0.384 OA
ATOM     53  H   UNL     1      -2.007   3.655  -3.024  1.00  0.00     0.211 HD
ENDBRANCH   4  52
TORSDOF 16
