REMARK SMILES COc1cc2c(c(OC)c1OC)-c1c(cc(OC)c(OC)c1OC)C[C@H](C)[C@H](C)C2
REMARK SMILES IDX 13 1 22 2 19 3 16 4 15 5 14 6 25 7 26 8 27 9 28 10 29 11
REMARK SMILES IDX 6 13 7 14 5 15 10 16 4 17 3 18 8 19 9 20 30 21 11 23 12 24
REMARK SMILES IDX 2 25 1 26 17 27 18 28 23 29 24 30 20 31 21 32
REMARK H PARENT
REMARK Flexibility Score:    8.900
ROOT
ATOM      1  C   UNL     1      -0.379   0.697  -0.059  1.00  0.00     0.035 A 
ATOM      2  C   UNL     1      -0.405   1.864   0.737  1.00  0.00     0.172 A 
ATOM      3  C   UNL     1      -1.545   2.680   0.796  1.00  0.00     0.203 A 
ATOM      4  C   UNL     1      -2.717   2.313   0.128  1.00  0.00     0.164 A 
ATOM      5  C   UNL     1      -2.718   1.134  -0.620  1.00  0.00     0.055 A 
ATOM      6  C   UNL     1      -1.570   0.311  -0.713  1.00  0.00    -0.032 A 
ENDROOT
BRANCH   6   7
ATOM      7  C   UNL     1      -1.682  -0.978  -1.508  1.00  0.00     0.040 C 
BRANCH   7   8
ATOM      8  C   UNL     1      -2.110  -2.239  -0.712  1.00  0.00    -0.007 C 
ATOM      9  C   UNL     1      -3.342  -1.994   0.169  1.00  0.00     0.008 C 
BRANCH   8  10
ATOM     10  C   UNL     1      -0.940  -2.955   0.029  1.00  0.00    -0.007 CG0
ATOM     11  C   UNL     1      -1.417  -4.236   0.732  1.00  0.00     0.008 C 
ATOM     12  G   UNL     1      -0.163  -2.079   1.035  1.00  0.00     0.000 G0
ENDBRANCH   8  10
ENDBRANCH   7   8
ENDBRANCH   6   7
BRANCH   1  13
ATOM     13  C   UNL     1       0.870  -0.083  -0.194  1.00  0.00     0.035 A 
ATOM     14  C   UNL     1       1.975   0.448  -0.897  1.00  0.00     0.172 A 
ATOM     15  C   UNL     1       1.000  -1.373   0.363  1.00  0.00    -0.032 A 
ATOM     16  C   UNL     1       3.195  -0.242  -0.962  1.00  0.00     0.203 A 
ATOM     17  C   UNL     1       2.222  -2.074   0.248  1.00  0.00     0.055 A 
ATOM     18  C   UNL     1       3.324  -1.518  -0.404  1.00  0.00     0.164 A 
BRANCH  14  19
ATOM     19  O   UNL     1       1.863   1.689  -1.486  1.00  0.00    -0.492 OA
ATOM     20  C   UNL     1       1.636   1.551  -2.888  1.00  0.00     0.278 C 
ENDBRANCH  14  19
BRANCH  15  21
ATOM     21  C   UNL     1      -0.163  -2.079   1.035  1.00  0.00     0.040 CG0
ATOM     22  G   UNL     1      -0.940  -2.955   0.029  1.00  0.00     0.000 G0
ENDBRANCH  15  21
BRANCH  16  23
ATOM     23  O   UNL     1       4.262   0.310  -1.634  1.00  0.00    -0.490 OA
ATOM     24  C   UNL     1       4.982   1.176  -0.756  1.00  0.00     0.278 C 
ENDBRANCH  16  23
BRANCH  18  25
ATOM     25  O   UNL     1       4.544  -2.124  -0.546  1.00  0.00    -0.493 OA
ATOM     26  C   UNL     1       4.690  -3.437  -0.025  1.00  0.00     0.278 C 
ENDBRANCH  18  25
ENDBRANCH   1  13
BRANCH   4  27
ATOM     27  O   UNL     1      -3.785   3.161   0.262  1.00  0.00    -0.493 OA
ATOM     28  C   UNL     1      -5.013   2.771  -0.335  1.00  0.00     0.278 C 
ENDBRANCH   4  27
BRANCH   2  29
ATOM     29  O   UNL     1       0.730   2.235   1.427  1.00  0.00    -0.492 OA
ATOM     30  C   UNL     1       0.618   1.855   2.798  1.00  0.00     0.278 C 
ENDBRANCH   2  29
BRANCH   3  31
ATOM     31  O   UNL     1      -1.535   3.824   1.562  1.00  0.00    -0.490 OA
ATOM     32  C   UNL     1      -0.999   4.904   0.798  1.00  0.00     0.278 C 
ENDBRANCH   3  31
TORSDOF 6
