REMARK SMILES CC[C@H]1[C@@H](O)[C@@H]2[C@H](CC[C@]3(C)[C@@H]([C@H](C)CCC(=O)O)CC[C@@H]23)[C@@]2(C)CC[C@@H](O)C[C@@H]12
REMARK SMILES IDX 15 1 13 2 14 3 12 4 3 5 30 6 4 7 29 8 23 9 6 10 27 11 25 12
REMARK SMILES IDX 7 13 22 14 26 15 8 16 10 17 21 18 9 19 20 20 24 21 11 22
REMARK SMILES IDX 2 23 1 24 5 25 28 27 16 29 17 30 18 31 19 32
REMARK H PARENT 5 26 28 28 19 33
ROOT
ATOM      1  C   UNL     1       5.037  -0.557   0.435  1.00  0.00     0.015 C 
ENDROOT
BRANCH   1   2
ATOM      2  C   UNL     1       4.033   0.145   1.373  1.00  0.00    -0.010 C 
ATOM      3  C   UNL     1       4.760   1.224   2.197  1.00  0.00     0.008 C 
BRANCH   2   4
ATOM      4  C   UNL     1       2.696   0.713   0.832  1.00  0.00    -0.002 C 
ATOM      5  C   UNL     1      -3.131   1.165  -0.673  1.00  0.00     0.021 C 
ATOM      6  C   UNL     1      -3.653  -0.281  -0.937  1.00  0.00     0.003 C 
ATOM      7  C   UNL     1      -1.759   1.331  -1.363  1.00  0.00     0.121 C 
ATOM      8  C   UNL     1      -5.085  -0.516  -0.391  1.00  0.00     0.036 C 
ATOM      9  C   UNL     1      -2.601  -1.435  -0.684  1.00  0.00    -0.026 C 
ATOM     10  C   UNL     1      -0.670   0.324  -0.907  1.00  0.00     0.025 C 
ATOM     11  C   UNL     1      -5.251  -1.321   0.902  1.00  0.00     0.114 C 
ATOM     12  C   UNL     1      -3.226  -2.560   0.188  1.00  0.00     0.010 C 
ATOM     13  C   UNL     1      -1.282  -0.843  -0.046  1.00  0.00     0.001 C 
ATOM     14  C   UNL     1       0.564   0.894  -0.176  1.00  0.00     0.001 C 
ATOM     15  C   UNL     1      -3.987  -2.016   1.382  1.00  0.00     0.032 C 
ATOM     16  C   UNL     1      -0.209  -1.896   0.343  1.00  0.00     0.005 C 
ATOM     17  C   UNL     1       1.654  -0.188   0.112  1.00  0.00    -0.026 C 
ATOM     18  C   UNL     1       1.394   2.025  -0.796  1.00  0.00     0.005 C 
ATOM     19  C   UNL     1       1.034  -1.272   0.998  1.00  0.00     0.007 C 
ATOM     20  C   UNL     1       2.745   1.978  -0.051  1.00  0.00     0.005 C 
ATOM     21  C   UNL     1      -2.270  -2.104  -2.048  1.00  0.00     0.012 C 
ATOM     22  C   UNL     1       2.210  -0.838  -1.179  1.00  0.00     0.012 C 
BRANCH   5  23
ATOM     23  C   UNL     1      -3.120   1.619   0.806  1.00  0.00     0.003 C 
ATOM     24  C   UNL     1      -4.057   2.793   1.059  1.00  0.00     0.004 C 
ENDBRANCH   5  23
BRANCH   7  25
ATOM     25  O   UNL     1      -1.354   2.691  -1.333  1.00  0.00    -0.393 OA
ATOM     26  H   UNL     1      -1.253   2.971  -0.410  1.00  0.00     0.210 HD
ENDBRANCH   7  25
BRANCH  11  27
ATOM     27  O   UNL     1      -5.809  -0.524   1.940  1.00  0.00    -0.393 OA
ATOM     28  H   UNL     1      -5.175   0.170   2.178  1.00  0.00     0.210 HD
ENDBRANCH  11  27
ENDBRANCH   2   4
ENDBRANCH   1   2
BRANCH   1  29
ATOM     29  C   UNL     1       5.661   0.274  -0.684  1.00  0.00     0.123 C 
BRANCH  29  30
ATOM     30  C   UNL     1       6.779  -0.473  -1.365  1.00  0.00     0.303 C 
ATOM     31  O   UNL     1       7.103  -1.637  -1.207  1.00  0.00    -0.252 OA
BRANCH  30  32
ATOM     32  O   UNL     1       7.435   0.306  -2.249  1.00  0.00    -0.481 OA
ATOM     33  H   UNL     1       8.118  -0.287  -2.626  1.00  0.00     0.296 HD
ENDBRANCH  30  32
ENDBRANCH  29  30
ENDBRANCH   1  29
TORSDOF 8
