REMARK SMILES CC(C)c1ccc2c(c1)CC[C@H]1[C@](C)(C(=O)O)CCC[C@]21C
REMARK SMILES IDX 4 1 9 2 8 3 7 4 6 5 5 6 21 7 20 8 19 9 18 10 13 11 12 12
REMARK SMILES IDX 11 13 10 14 14 15 22 16 2 17 1 18 3 19 15 20 16 21 17 22
REMARK H PARENT 17 23
ROOT
ATOM      1  C   UNL     1       3.320  -0.506  -0.193  1.00  0.00    -0.045 A 
ATOM      2  C   UNL     1       2.545   0.652  -0.056  1.00  0.00     0.008 A 
ATOM      3  C   UNL     1       1.137   0.614  -0.118  1.00  0.00    -0.044 A 
ATOM      4  C   UNL     1       0.476  -0.618  -0.304  1.00  0.00    -0.039 A 
ATOM      5  C   UNL     1       1.264  -1.774  -0.454  1.00  0.00     0.005 A 
ATOM      6  C   UNL     1       2.660  -1.720  -0.395  1.00  0.00     0.004 A 
ATOM      7  C   UNL     1      -1.067  -0.682  -0.422  1.00  0.00    -0.003 C 
ATOM      8  C   UNL     1      -1.648  -1.989   0.184  1.00  0.00     0.012 C 
ATOM      9  C   UNL     1      -3.174  -2.005   0.256  1.00  0.00     0.002 C 
ATOM     10  C   UNL     1      -3.715  -0.837   1.069  1.00  0.00     0.019 C 
ATOM     11  C   UNL     1      -3.227   0.544   0.572  1.00  0.00     0.069 C 
ATOM     12  C   UNL     1      -1.673   0.530   0.375  1.00  0.00     0.017 C 
ATOM     13  C   UNL     1      -1.104   1.854  -0.160  1.00  0.00     0.010 C 
ATOM     14  C   UNL     1       0.402   1.917   0.079  1.00  0.00     0.036 C 
ATOM     15  C   UNL     1      -4.026   0.949  -0.683  1.00  0.00     0.024 C 
ATOM     16  C   UNL     1      -1.343  -0.670  -1.946  1.00  0.00     0.017 C 
ENDROOT
BRANCH   1  17
ATOM     17  C   UNL     1       4.836  -0.468  -0.130  1.00  0.00     0.013 C 
ATOM     18  C   UNL     1       5.330   0.020   1.235  1.00  0.00     0.012 C 
ATOM     19  C   UNL     1       5.426   0.381  -1.259  1.00  0.00     0.012 C 
ENDBRANCH   1  17
BRANCH  11  20
ATOM     20  C   UNL     1      -3.571   1.577   1.660  1.00  0.00     0.309 C 
ATOM     21  O   UNL     1      -4.214   2.605   1.516  1.00  0.00    -0.252 OA
BRANCH  20  22
ATOM     22  O   UNL     1      -3.063   1.285   2.874  1.00  0.00    -0.481 OA
ATOM     23  H   UNL     1      -3.355   2.032   3.438  1.00  0.00     0.296 HD
ENDBRANCH  20  22
ENDBRANCH  11  20
TORSDOF 3
