REMARK SMILES C[C@H]1[C@H](C)CC[C@]2(C(=O)O)CC[C@]3(C)C(=CC[C@@H]4[C@@]5(C)C[C@@H](O)[C@H](O)[C@@](C)(CO)[C@@H]5[C@H](O)C[C@]43C)[C@H]12
REMARK SMILES IDX 4 1 3 2 5 3 6 4 7 5 11 6 12 7 13 8 15 9 16 10 17 11 18 12
REMARK SMILES IDX 34 13 33 14 31 15 30 16 19 17 21 18 22 19 24 20 26 21 27 22
REMARK SMILES IDX 20 23 35 24 36 25 2 26 1 27 14 28 8 29 9 30 10 31 32 33
REMARK SMILES IDX 28 35 29 36 23 38 25 40
REMARK H PARENT 10 32 32 34 29 37 23 39 25 41
ROOT
ATOM      1  C   UNL     1      -6.222  -2.672  -0.483  1.00  0.00     0.008 C 
ATOM      2  C   UNL     1      -5.417  -1.892   0.566  1.00  0.00    -0.011 C 
ATOM      3  C   UNL     1      -6.143  -0.585   0.927  1.00  0.00     0.005 C 
ATOM      4  C   UNL     1      -5.670   0.584   0.073  1.00  0.00     0.020 C 
ATOM      5  C   UNL     1      -4.157   0.891   0.264  1.00  0.00     0.075 C 
ATOM      6  C   UNL     1      -3.615   1.415  -1.088  1.00  0.00     0.020 C 
ATOM      7  C   UNL     1      -2.116   1.713  -1.055  1.00  0.00     0.013 C 
ATOM      8  C   UNL     1      -1.222   0.512  -0.635  1.00  0.00    -0.006 C 
ATOM      9  C   UNL     1      -1.830  -0.194   0.593  1.00  0.00    -0.063 C 
ATOM     10  C   UNL     1      -1.051  -0.653   1.594  1.00  0.00    -0.027 C 
ATOM     11  C   UNL     1       0.444  -0.595   1.652  1.00  0.00     0.032 C 
ATOM     12  C   UNL     1       1.115  -0.153   0.334  1.00  0.00     0.006 C 
ATOM     13  C   UNL     1       0.308   1.031  -0.321  1.00  0.00    -0.017 C 
ATOM     14  C   UNL     1       1.010   1.489  -1.632  1.00  0.00     0.040 C 
ATOM     15  C   UNL     1       2.530   1.678  -1.563  1.00  0.00     0.119 C 
ATOM     16  C   UNL     1       3.220   0.400  -1.025  1.00  0.00     0.035 C 
ATOM     17  C   UNL     1       2.707  -0.009   0.416  1.00  0.00    -0.020 C 
ATOM     18  C   UNL     1       3.300  -1.415   0.754  1.00  0.00     0.042 C 
ATOM     19  C   UNL     1       4.813  -1.520   0.566  1.00  0.00     0.144 C 
ATOM     20  C   UNL     1       5.229  -1.125  -0.853  1.00  0.00     0.151 C 
ATOM     21  C   UNL     1       4.783   0.307  -1.267  1.00  0.00     0.025 C 
ATOM     22  C   UNL     1       5.613   1.384  -0.538  1.00  0.00     0.017 C 
ATOM     23  C   UNL     1       3.165   0.938   1.554  1.00  0.00     0.012 C 
ATOM     24  C   UNL     1       0.249   2.251   0.648  1.00  0.00     0.013 C 
ATOM     25  C   UNL     1      -3.355  -0.368   0.725  1.00  0.00     0.036 C 
ATOM     26  C   UNL     1      -3.952  -1.662   0.082  1.00  0.00    -0.003 C 
ATOM     27  C   UNL     1      -3.119  -2.922   0.362  1.00  0.00     0.008 C 
ATOM     28  C   UNL     1      -1.246  -0.511  -1.809  1.00  0.00     0.017 C 
ENDROOT
BRANCH   5  29
ATOM     29  C   UNL     1      -4.074   2.012   1.310  1.00  0.00     0.310 C 
ATOM     30  O   UNL     1      -3.938   3.206   1.089  1.00  0.00    -0.252 OA
BRANCH  29  31
ATOM     31  O   UNL     1      -4.254   1.601   2.580  1.00  0.00    -0.481 OA
ATOM     32  H   UNL     1      -4.196   2.429   3.102  1.00  0.00     0.296 HD
ENDBRANCH  29  31
ENDBRANCH   5  29
BRANCH  15  33
ATOM     33  O   UNL     1       2.865   2.834  -0.822  1.00  0.00    -0.393 OA
ATOM     34  H   UNL     1       2.422   3.596  -1.235  1.00  0.00     0.210 HD
ENDBRANCH  15  33
BRANCH  21  35
ATOM     35  C   UNL     1       5.092   0.469  -2.792  1.00  0.00     0.166 C 
BRANCH  35  36
ATOM     36  O   UNL     1       6.467   0.294  -3.120  1.00  0.00    -0.396 OA
ATOM     37  H   UNL     1       6.846  -0.337  -2.470  1.00  0.00     0.210 HD
ENDBRANCH  35  36
ENDBRANCH  21  35
BRANCH  19  38
ATOM     38  O   UNL     1       5.224  -2.881   0.772  1.00  0.00    -0.390 OA
ATOM     39  H   UNL     1       4.970  -3.124   1.681  1.00  0.00     0.211 HD
ENDBRANCH  19  38
BRANCH  20  40
ATOM     40  O   UNL     1       6.650  -1.286  -0.979  1.00  0.00    -0.390 OA
ATOM     41  H   UNL     1       6.840  -2.142  -0.540  1.00  0.00     0.211 HD
ENDBRANCH  20  40
TORSDOF 7
