REMARK SMILES CC1(C)CC[C@]2(C(=O)O)CC[C@]3(C)C(=CC[C@@H]4[C@@]5(C)C[C@@H](O)[C@H](O)C(C)(C)[C@@H]5CC[C@]43C)[C@@H]2C1
REMARK SMILES IDX 32 1 31 2 30 3 29 4 28 5 18 6 17 7 16 8 15 9 14 10 12 11
REMARK SMILES IDX 11 12 10 13 6 14 33 15 34 16 2 17 4 18 5 19 1 20 3 21 13 22
REMARK SMILES IDX 20 23 21 24 23 25 25 26 26 27 27 28 19 29 22 30 7 32 8 33
REMARK SMILES IDX 9 34 24 36
REMARK H PARENT 22 31 9 35 24 37
ROOT
ATOM      1  C   UNL     1       0.485   2.049  -0.308  1.00  0.00     0.012 C 
ATOM      2  C   UNL     1       0.604   0.523  -0.564  1.00  0.00    -0.020 C 
ATOM      3  C   UNL     1       1.498   0.337  -1.823  1.00  0.00     0.008 C 
ATOM      4  C   UNL     1       2.980   0.643  -1.601  1.00  0.00     0.005 C 
ATOM      5  C   UNL     1       3.571  -0.256  -0.496  1.00  0.00     0.004 C 
ATOM      6  C   UNL     1       2.855  -0.021   0.877  1.00  0.00    -0.023 C 
ATOM      7  C   UNL     1       1.283  -0.213   0.661  1.00  0.00     0.006 C 
ATOM      8  C   UNL     1       0.439  -0.039   1.944  1.00  0.00     0.032 C 
ATOM      9  C   UNL     1      -1.043  -0.108   1.730  1.00  0.00    -0.027 C 
ATOM     10  C   UNL     1      -1.669  -0.131   0.538  1.00  0.00    -0.063 C 
ATOM     11  C   UNL     1      -0.889  -0.116  -0.788  1.00  0.00    -0.006 C 
ATOM     12  C   UNL     1      -1.730   0.653  -1.858  1.00  0.00     0.013 C 
ATOM     13  C   UNL     1      -2.646   1.748  -1.302  1.00  0.00     0.020 C 
ATOM     14  C   UNL     1      -3.683   1.249  -0.258  1.00  0.00     0.074 C 
ATOM     15  C   UNL     1      -3.197  -0.030   0.502  1.00  0.00     0.033 C 
ATOM     16  C   UNL     1      -3.890  -1.308  -0.014  1.00  0.00     0.015 C 
ATOM     17  C   UNL     1      -5.430  -1.271   0.166  1.00  0.00    -0.035 C 
ATOM     18  C   UNL     1      -5.985   0.150  -0.090  1.00  0.00     0.007 C 
ATOM     19  C   UNL     1      -5.047   0.989  -0.959  1.00  0.00     0.020 C 
ATOM     20  C   UNL     1      -6.061  -2.264  -0.831  1.00  0.00     0.011 C 
ATOM     21  C   UNL     1      -5.816  -1.720   1.587  1.00  0.00     0.011 C 
ATOM     22  C   UNL     1      -0.779  -1.587  -1.300  1.00  0.00     0.017 C 
ATOM     23  C   UNL     1       3.343  -1.107   1.907  1.00  0.00     0.042 C 
ATOM     24  C   UNL     1       4.654  -1.829   1.558  1.00  0.00     0.144 C 
ATOM     25  C   UNL     1       5.685  -0.929   0.861  1.00  0.00     0.149 C 
ATOM     26  C   UNL     1       5.149  -0.271  -0.456  1.00  0.00    -0.003 C 
ATOM     27  C   UNL     1       5.781   1.123  -0.676  1.00  0.00     0.014 C 
ATOM     28  C   UNL     1       5.644  -1.148  -1.645  1.00  0.00     0.014 C 
ATOM     29  C   UNL     1       3.203   1.361   1.481  1.00  0.00     0.012 C 
ENDROOT
BRANCH  24  30
ATOM     30  O   UNL     1       4.383  -2.976   0.749  1.00  0.00    -0.390 OA
ATOM     31  H   UNL     1       3.748  -3.535   1.231  1.00  0.00     0.211 HD
ENDBRANCH  24  30
BRANCH  14  32
ATOM     32  C   UNL     1      -3.907   2.386   0.752  1.00  0.00     0.310 C 
ATOM     33  O   UNL     1      -3.931   2.311   1.970  1.00  0.00    -0.252 OA
BRANCH  32  34
ATOM     34  O   UNL     1      -4.145   3.581   0.167  1.00  0.00    -0.481 OA
ATOM     35  H   UNL     1      -4.277   4.187   0.925  1.00  0.00     0.296 HD
ENDBRANCH  32  34
ENDBRANCH  14  32
BRANCH  25  36
ATOM     36  O   UNL     1       6.153   0.054   1.791  1.00  0.00    -0.390 OA
ATOM     37  H   UNL     1       6.671  -0.412   2.469  1.00  0.00     0.211 HD
ENDBRANCH  25  36
TORSDOF 4
