REMARK SMILES C[C@H]1[C@H](C)CC[C@]2(C)CC[C@]3(C)C(=CC[C@@H]4[C@@]5(C)CC[C@@H](O)[C@](C)(C(=O)O)[C@@H]5CC[C@]43C)[C@H]12
REMARK SMILES IDX 4 1 3 2 5 3 6 4 7 5 9 6 10 7 11 8 13 9 14 10 15 11 16 12
REMARK SMILES IDX 31 13 30 14 29 15 28 16 17 17 19 18 20 19 21 20 23 21 24 22
REMARK SMILES IDX 18 23 32 24 33 25 2 26 1 27 12 28 8 29 25 30 26 31 27 32
REMARK SMILES IDX 22 34
REMARK H PARENT 27 33 22 35
ROOT
ATOM      1  C   UNL     1      -6.329  -1.241  -1.552  1.00  0.00     0.008 C 
ATOM      2  C   UNL     1      -5.523  -0.991  -0.270  1.00  0.00    -0.011 C 
ATOM      3  C   UNL     1      -6.062   0.251   0.462  1.00  0.00     0.004 C 
ATOM      4  C   UNL     1      -5.306   1.511   0.061  1.00  0.00     0.007 C 
ATOM      5  C   UNL     1      -3.804   1.450   0.461  1.00  0.00    -0.026 C 
ATOM      6  C   UNL     1      -3.017   2.299  -0.564  1.00  0.00     0.008 C 
ATOM      7  C   UNL     1      -1.508   2.267  -0.335  1.00  0.00     0.012 C 
ATOM      8  C   UNL     1      -0.885   0.839  -0.346  1.00  0.00    -0.006 C 
ATOM      9  C   UNL     1      -1.737  -0.113   0.520  1.00  0.00    -0.064 C 
ATOM     10  C   UNL     1      -1.168  -1.020   1.341  1.00  0.00    -0.027 C 
ATOM     11  C   UNL     1       0.301  -1.272   1.497  1.00  0.00     0.032 C 
ATOM     12  C   UNL     1       1.167  -0.581   0.424  1.00  0.00     0.006 C 
ATOM     13  C   UNL     1       0.666   0.894   0.188  1.00  0.00    -0.020 C 
ATOM     14  C   UNL     1       1.590   1.593  -0.845  1.00  0.00     0.008 C 
ATOM     15  C   UNL     1       3.083   1.445  -0.557  1.00  0.00     0.006 C 
ATOM     16  C   UNL     1       3.492  -0.042  -0.529  1.00  0.00     0.015 C 
ATOM     17  C   UNL     1       2.734  -0.825   0.596  1.00  0.00    -0.025 C 
ATOM     18  C   UNL     1       3.006  -2.358   0.405  1.00  0.00     0.010 C 
ATOM     19  C   UNL     1       4.289  -2.710  -0.349  1.00  0.00     0.033 C 
ATOM     20  C   UNL     1       5.423  -1.717  -0.118  1.00  0.00     0.131 C 
ATOM     21  C   UNL     1       5.050  -0.282  -0.607  1.00  0.00     0.094 C 
ATOM     22  C   UNL     1       5.500  -0.103  -2.084  1.00  0.00     0.027 C 
ATOM     23  C   UNL     1       3.254  -0.447   2.006  1.00  0.00     0.012 C 
ATOM     24  C   UNL     1       0.736   1.715   1.510  1.00  0.00     0.012 C 
ATOM     25  C   UNL     1      -3.275  -0.024   0.494  1.00  0.00     0.024 C 
ATOM     26  C   UNL     1      -3.996  -0.896  -0.583  1.00  0.00    -0.004 C 
ATOM     27  C   UNL     1      -3.411  -2.309  -0.715  1.00  0.00     0.008 C 
ATOM     28  C   UNL     1      -0.955   0.319  -1.812  1.00  0.00     0.017 C 
ATOM     29  C   UNL     1      -3.658   2.067   1.875  1.00  0.00     0.012 C 
ENDROOT
BRANCH  21  30
ATOM     30  C   UNL     1       5.821   0.715   0.265  1.00  0.00     0.312 C 
ATOM     31  O   UNL     1       6.124   0.583   1.441  1.00  0.00    -0.252 OA
BRANCH  30  32
ATOM     32  O   UNL     1       6.134   1.870  -0.355  1.00  0.00    -0.481 OA
ATOM     33  H   UNL     1       6.612   2.382   0.331  1.00  0.00     0.296 HD
ENDBRANCH  30  32
ENDBRANCH  21  30
BRANCH  20  34
ATOM     34  O   UNL     1       6.589  -2.205  -0.788  1.00  0.00    -0.392 OA
ATOM     35  H   UNL     1       6.831  -3.053  -0.376  1.00  0.00     0.210 HD
ENDBRANCH  20  34
TORSDOF 3
