REMARK SMILES C[C@H](CC(=O)C[C@@H](C)[C@H]1C[C@H](O)[C@@]2(C)C3=C(C(=O)C[C@]12C)[C@@]1(C)CCC(=O)C(C)(C)C1C[C@@H]3O)C(=O)O
REMARK SMILES IDX 4 1 5 2 6 3 7 4 8 5 9 6 10 7 20 8 11 9 13 10 19 11 15 12
REMARK SMILES IDX 17 13 16 14 33 15 18 16 22 17 32 18 31 19 24 20 28 21 25 22
REMARK SMILES IDX 26 23 27 24 21 25 14 26 23 27 29 28 30 29 12 30 34 32 3 34
REMARK SMILES IDX 2 35 1 36 35 37 36 38 37 39
REMARK H PARENT 12 31 34 33 37 40
ROOT
ATOM      1  C   UNL     1       5.137  -1.545  -0.580  1.00  0.00     0.134 C 
ATOM      2  O   UNL     1       5.444  -2.084  -1.643  1.00  0.00    -0.300 OA
ENDROOT
BRANCH   1   3
ATOM      3  C   UNL     1       3.695  -1.160  -0.297  1.00  0.00     0.079 C 
BRANCH   3   4
ATOM      4  C   UNL     1       3.405   0.313  -0.639  1.00  0.00    -0.003 C 
ATOM      5  C   UNL     1       3.472   0.529  -2.157  1.00  0.00     0.008 C 
BRANCH   4   6
ATOM      6  C   UNL     1       2.134   0.830   0.095  1.00  0.00     0.002 C 
ATOM      7  C   UNL     1       1.883   2.355  -0.077  1.00  0.00     0.037 C 
ATOM      8  C   UNL     1       0.719   0.199  -0.102  1.00  0.00    -0.010 C 
ATOM      9  C   UNL     1       0.353   2.552  -0.089  1.00  0.00     0.125 C 
ATOM     10  C   UNL     1      -0.201   1.273   0.595  1.00  0.00     0.024 C 
ATOM     11  C   UNL     1       0.481  -1.139   0.594  1.00  0.00     0.088 C 
ATOM     12  C   UNL     1      -1.670   0.879   0.408  1.00  0.00    -0.026 C 
ATOM     13  C   UNL     1      -1.002  -1.476   0.698  1.00  0.00     0.160 C 
ATOM     14  C   UNL     1      -2.065  -0.418   0.410  1.00  0.00     0.004 C 
ATOM     15  C   UNL     1      -2.656   2.006   0.351  1.00  0.00     0.142 C 
ATOM     16  O   UNL     1      -1.323  -2.611   1.051  1.00  0.00    -0.295 OA
ATOM     17  C   UNL     1      -3.534  -0.884   0.190  1.00  0.00     0.000 C 
ATOM     18  C   UNL     1      -4.111   1.589   0.537  1.00  0.00     0.042 C 
ATOM     19  C   UNL     1      -4.478   0.317  -0.266  1.00  0.00     0.015 C 
ATOM     20  C   UNL     1      -4.071  -1.473   1.523  1.00  0.00     0.020 C 
ATOM     21  C   UNL     1      -6.037   0.034  -0.218  1.00  0.00     0.027 C 
ATOM     22  C   UNL     1      -5.547  -1.835   1.513  1.00  0.00     0.077 C 
ATOM     23  C   UNL     1      -6.392  -0.656   1.103  1.00  0.00     0.138 C 
ATOM     24  O   UNL     1      -7.362  -0.321   1.782  1.00  0.00    -0.299 OA
ATOM     25  C   UNL     1       0.413   0.009  -1.617  1.00  0.00     0.013 C 
ATOM     26  C   UNL     1      -0.016   1.405   2.141  1.00  0.00     0.019 C 
ATOM     27  C   UNL     1      -3.514  -1.950  -0.936  1.00  0.00     0.017 C 
ATOM     28  C   UNL     1      -6.865   1.339  -0.339  1.00  0.00     0.020 C 
ATOM     29  C   UNL     1      -6.517  -0.864  -1.380  1.00  0.00     0.020 C 
BRANCH   9  30
ATOM     30  O   UNL     1       0.011   3.758   0.572  1.00  0.00    -0.392 OA
ATOM     31  H   UNL     1      -0.854   4.029   0.209  1.00  0.00     0.210 HD
ENDBRANCH   9  30
BRANCH  15  32
ATOM     32  O   UNL     1      -2.498   2.681  -0.892  1.00  0.00    -0.389 OA
ATOM     33  H   UNL     1      -2.683   2.045  -1.604  1.00  0.00     0.211 HD
ENDBRANCH  15  32
ENDBRANCH   4   6
ENDBRANCH   3   4
ENDBRANCH   1   3
BRANCH   1  34
ATOM     34  C   UNL     1       6.154  -1.230   0.502  1.00  0.00     0.090 C 
BRANCH  34  35
ATOM     35  C   UNL     1       7.600  -1.473   0.058  1.00  0.00     0.103 C 
ATOM     36  C   UNL     1       8.132  -0.348  -0.825  1.00  0.00     0.020 C 
BRANCH  35  37
ATOM     37  C   UNL     1       8.505  -1.639   1.254  1.00  0.00     0.306 C 
ATOM     38  O   UNL     1       9.396  -2.464   1.371  1.00  0.00    -0.252 OA
BRANCH  37  39
ATOM     39  O   UNL     1       8.288  -0.733   2.226  1.00  0.00    -0.481 OA
ATOM     40  H   UNL     1       8.971  -0.945   2.898  1.00  0.00     0.296 HD
ENDBRANCH  37  39
ENDBRANCH  35  37
ENDBRANCH  34  35
ENDBRANCH   1  34
TORSDOF 9
