REMARK SMILES C[C@H]1[C@H](C)CC[C@]2(C(=O)O)CC[C@]3(C)C(=CC[C@@H]4[C@@]5(C)C[C@@H](O)[C@H](O)[C@@](C)(CO)[C@@H]5CC[C@]43C)[C@H]12
REMARK SMILES IDX 4 1 3 2 5 3 6 4 7 5 11 6 12 7 13 8 15 9 16 10 17 11 18 12
REMARK SMILES IDX 33 13 32 14 31 15 30 16 19 17 21 18 22 19 24 20 26 21 27 22
REMARK SMILES IDX 20 23 34 24 35 25 2 26 1 27 14 28 8 29 9 30 10 31 28 33
REMARK SMILES IDX 29 34 23 36 25 38
REMARK H PARENT 10 32 29 35 23 37 25 39
ROOT
ATOM      1  C   UNL     1      -6.515   2.236   0.416  1.00  0.00     0.008 C 
ATOM      2  C   UNL     1      -5.675   0.958   0.274  1.00  0.00    -0.011 C 
ATOM      3  C   UNL     1      -5.633   0.241   1.629  1.00  0.00     0.005 C 
ATOM      4  C   UNL     1      -4.562  -0.843   1.745  1.00  0.00     0.020 C 
ATOM      5  C   UNL     1      -3.949  -1.293   0.402  1.00  0.00     0.075 C 
ATOM      6  C   UNL     1      -2.954  -2.459   0.653  1.00  0.00     0.020 C 
ATOM      7  C   UNL     1      -1.607  -2.272  -0.042  1.00  0.00     0.013 C 
ATOM      8  C   UNL     1      -0.904  -0.944   0.343  1.00  0.00    -0.006 C 
ATOM      9  C   UNL     1      -1.824   0.240  -0.000  1.00  0.00    -0.063 C 
ATOM     10  C   UNL     1      -1.264   1.460  -0.157  1.00  0.00    -0.027 C 
ATOM     11  C   UNL     1       0.207   1.780  -0.141  1.00  0.00     0.032 C 
ATOM     12  C   UNL     1       1.170   0.581   0.040  1.00  0.00     0.006 C 
ATOM     13  C   UNL     1       0.518  -0.773  -0.429  1.00  0.00    -0.020 C 
ATOM     14  C   UNL     1       1.495  -1.930  -0.089  1.00  0.00     0.008 C 
ATOM     15  C   UNL     1       2.938  -1.699  -0.550  1.00  0.00     0.005 C 
ATOM     16  C   UNL     1       3.531  -0.393   0.023  1.00  0.00     0.006 C 
ATOM     17  C   UNL     1       2.681   0.859  -0.385  1.00  0.00    -0.023 C 
ATOM     18  C   UNL     1       3.188   2.107   0.419  1.00  0.00     0.042 C 
ATOM     19  C   UNL     1       4.627   2.042   0.949  1.00  0.00     0.144 C 
ATOM     20  C   UNL     1       5.591   1.201   0.094  1.00  0.00     0.151 C 
ATOM     21  C   UNL     1       5.097  -0.262  -0.183  1.00  0.00     0.022 C 
ATOM     22  C   UNL     1       5.565  -0.741  -1.579  1.00  0.00     0.017 C 
ATOM     23  C   UNL     1       2.815   1.188  -1.891  1.00  0.00     0.012 C 
ATOM     24  C   UNL     1       0.274  -0.799  -1.967  1.00  0.00     0.012 C 
ATOM     25  C   UNL     1      -3.321  -0.053  -0.328  1.00  0.00     0.036 C 
ATOM     26  C   UNL     1      -4.248   1.228  -0.258  1.00  0.00    -0.003 C 
ATOM     27  C   UNL     1      -4.312   1.901  -1.643  1.00  0.00     0.008 C 
ATOM     28  C   UNL     1      -0.719  -0.940   1.895  1.00  0.00     0.017 C 
ENDROOT
BRANCH   5  29
ATOM     29  C   UNL     1      -5.056  -1.939  -0.448  1.00  0.00     0.310 C 
ATOM     30  O   UNL     1      -6.126  -2.370  -0.046  1.00  0.00    -0.252 OA
BRANCH  29  31
ATOM     31  O   UNL     1      -4.737  -2.089  -1.749  1.00  0.00    -0.481 OA
ATOM     32  H   UNL     1      -5.517  -2.543  -2.131  1.00  0.00     0.296 HD
ENDBRANCH  29  31
ENDBRANCH   5  29
BRANCH  21  33
ATOM     33  C   UNL     1       5.816  -1.209   0.831  1.00  0.00     0.165 C 
BRANCH  33  34
ATOM     34  O   UNL     1       5.524  -0.849   2.177  1.00  0.00    -0.396 OA
ATOM     35  H   UNL     1       5.963  -1.510   2.745  1.00  0.00     0.210 HD
ENDBRANCH  33  34
ENDBRANCH  21  33
BRANCH  19  36
ATOM     36  O   UNL     1       4.605   1.627   2.316  1.00  0.00    -0.390 OA
ATOM     37  H   UNL     1       4.831   0.672   2.359  1.00  0.00     0.211 HD
ENDBRANCH  19  36
BRANCH  20  38
ATOM     38  O   UNL     1       5.861   1.895  -1.130  1.00  0.00    -0.390 OA
ATOM     39  H   UNL     1       6.255   2.754  -0.898  1.00  0.00     0.211 HD
ENDBRANCH  20  38
TORSDOF 6
