ROOT
ATOM      1  C   UNL     1       6.266  19.166  32.507  1.00  0.00     0.065 C
ATOM      2  C   UNL     1       5.794  19.327  31.260  1.00  0.00     0.208 C
ATOM      3  O   UNL     1       4.771  20.154  30.862  1.00  0.00    -0.463 OA
ATOM      4  C   UNL     1       4.149  20.906  31.826  1.00  0.00     0.141 A
ATOM      5  C   UNL     1       4.523  20.869  33.167  1.00  0.00     0.066 A
ATOM      6  C   UNL     1       5.631  19.989  33.578  1.00  0.00     0.200 C
ATOM      7  O   UNL     1       5.999  19.954  34.747  1.00  0.00    -0.288 OA
ATOM      8  C   UNL     1       3.853  21.660  34.107  1.00  0.00     0.020 A
ATOM      9  C   UNL     1       2.808  22.486  33.692  1.00  0.00     0.047 A
ATOM     10  C   UNL     1       2.442  22.516  32.349  1.00  0.00     0.119 A
ATOM     11  C   UNL     1       3.103  21.732  31.408  1.00  0.00     0.094 A
ENDROOT
BRANCH   1  12
ATOM     12  C   UNL     1       7.385  18.239  32.777  1.00  0.00    -0.007 A
ATOM     13  C   UNL     1       9.778  17.828  32.984  1.00  0.00     0.161 A
ATOM     14  C   UNL     1       9.500  16.489  33.274  1.00  0.00     0.157 A
ATOM     15  C   UNL     1       8.715  18.697  32.730  1.00  0.00     0.059 A
ATOM     16  C   UNL     1       8.198  16.014  33.334  1.00  0.00     0.051 A
ATOM     17  C   UNL     1       7.140  16.890  33.089  1.00  0.00     0.013 A
BRANCH  13  18
ATOM     18  O   UNL     1      11.110  18.155  32.972  1.00  0.00    -0.493 OA
ATOM     19  C   UNL     1      11.546  18.993  31.908  1.00  0.00     0.278 C
ENDBRANCH  13  18
BRANCH  14  20
ATOM     20  O   UNL     1      10.521  15.611  33.518  1.00  0.00    -0.504 OA
ATOM     21  H   UNL     1      11.039  16.023  34.236  1.00  0.00     0.293 HD
ENDBRANCH  14  20
ENDBRANCH   1  12
BRANCH  10  22
ATOM     22  O   UNL     1       1.415  23.339  31.993  1.00  0.00    -0.508 OA
ATOM     23  H   UNL     1       1.515  23.586  31.057  1.00  0.00     0.293 HD
ENDBRANCH  10  22
TORSDOF 4
