ROOT
ATOM      1  C   UNL     1       1.697  62.767 168.549  1.00  0.00     0.065 C
ATOM      2  C   UNL     1       0.651  63.572 168.798  1.00  0.00     0.208 C
ATOM      3  O   UNL     1      -0.124  63.596 169.932  1.00  0.00    -0.463 OA
ATOM      4  C   UNL     1       0.183  62.709 170.932  1.00  0.00     0.141 A
ATOM      5  C   UNL     1       1.245  61.812 170.842  1.00  0.00     0.066 A
ATOM      6  C   UNL     1       2.079  61.808 169.626  1.00  0.00     0.200 C
ATOM      7  O   UNL     1       3.035  61.047 169.530  1.00  0.00    -0.288 OA
ATOM      8  C   UNL     1       1.513  60.931 171.895  1.00  0.00     0.020 A
ATOM      9  C   UNL     1       0.710  60.956 173.036  1.00  0.00     0.047 A
ATOM     10  C   UNL     1      -0.349  61.856 173.116  1.00  0.00     0.119 A
ATOM     11  C   UNL     1      -0.622  62.736 172.073  1.00  0.00     0.094 A
ENDROOT
BRANCH   1  12
ATOM     12  C   UNL     1       2.443  62.869 167.277  1.00  0.00    -0.007 A
ATOM     13  C   UNL     1       3.846  64.152 165.754  1.00  0.00     0.161 A
ATOM     14  C   UNL     1       3.841  63.068 164.871  1.00  0.00     0.157 A
ATOM     15  C   UNL     1       3.139  64.048 166.953  1.00  0.00     0.059 A
ATOM     16  C   UNL     1       3.168  61.892 165.169  1.00  0.00     0.051 A
ATOM     17  C   UNL     1       2.473  61.791 166.375  1.00  0.00     0.013 A
BRANCH  13  18
ATOM     18  O   UNL     1       4.564  65.242 165.329  1.00  0.00    -0.493 OA
ATOM     19  C   UNL     1       3.998  66.518 165.607  1.00  0.00     0.278 C
ENDBRANCH  13  18
BRANCH  14  20
ATOM     20  O   UNL     1       4.517  63.143 163.684  1.00  0.00    -0.504 OA
ATOM     21  H   UNL     1       4.834  64.065 163.634  1.00  0.00     0.293 HD
ENDBRANCH  14  20
ENDBRANCH   1  12
BRANCH  10  22
ATOM     22  O   UNL     1      -1.104  61.843 174.251  1.00  0.00    -0.508 OA
ATOM     23  H   UNL     1      -0.520  61.933 175.023  1.00  0.00     0.293 HD
ENDBRANCH  10  22
TORSDOF 4
