ROOT
ATOM      1  C   UNL     1       6.753  26.673  55.020  1.00  0.00     0.065 C
ATOM      2  C   UNL     1       7.939  26.876  55.615  1.00  0.00     0.208 C
ATOM      3  O   UNL     1       8.335  26.420  56.850  1.00  0.00    -0.463 OA
ATOM      4  C   UNL     1       7.436  25.676  57.571  1.00  0.00     0.141 A
ATOM      5  C   UNL     1       6.166  25.361  57.095  1.00  0.00     0.066 A
ATOM      6  C   UNL     1       5.759  25.844  55.763  1.00  0.00     0.200 C
ATOM      7  O   UNL     1       4.657  25.562  55.308  1.00  0.00    -0.288 OA
ATOM      8  C   UNL     1       5.291  24.597  57.875  1.00  0.00     0.020 A
ATOM      9  C   UNL     1       5.700  24.150  59.133  1.00  0.00     0.047 A
ATOM     10  C   UNL     1       6.972  24.470  59.599  1.00  0.00     0.119 A
ATOM     11  C   UNL     1       7.848  25.230  58.830  1.00  0.00     0.094 A
ENDROOT
BRANCH   1  12
ATOM     12  C   UNL     1       6.478  27.224  53.676  1.00  0.00    -0.007 A
ATOM     13  C   UNL     1       6.216  26.893  51.276  1.00  0.00     0.161 A
ATOM     14  C   UNL     1       5.973  28.263  51.137  1.00  0.00     0.157 A
ATOM     15  C   UNL     1       6.474  26.381  52.549  1.00  0.00     0.059 A
ATOM     16  C   UNL     1       5.965  29.115  52.232  1.00  0.00     0.051 A
ATOM     17  C   UNL     1       6.213  28.594  53.502  1.00  0.00     0.013 A
BRANCH  13  18
ATOM     18  O   UNL     1       6.180  26.176  50.107  1.00  0.00    -0.493 OA
ATOM     19  C   UNL     1       7.420  25.643  49.655  1.00  0.00     0.278 C
ENDBRANCH  13  18
BRANCH  14  20
ATOM     20  O   UNL     1       5.726  28.797  49.901  1.00  0.00    -0.504 OA
ATOM     21  H   UNL     1       6.359  29.535  49.817  1.00  0.00     0.293 HD
ENDBRANCH  14  20
ENDBRANCH   1  12
BRANCH  10  22
ATOM     22  O   UNL     1       7.326  24.011  60.833  1.00  0.00    -0.508 OA
ATOM     23  H   UNL     1       8.283  24.129  60.955  1.00  0.00     0.293 HD
ENDBRANCH  10  22
TORSDOF 4
