ROOT
ATOM      1  C   UNL     1       1.140  62.425 170.383  1.00  0.00     0.065 C
ATOM      2  C   UNL     1       2.072  61.461 170.326  1.00  0.00     0.208 C
ATOM      3  O   UNL     1       2.279  60.459 171.242  1.00  0.00    -0.463 OA
ATOM      4  C   UNL     1       1.457  60.415 172.338  1.00  0.00     0.145 A
ATOM      5  C   UNL     1       1.684  59.394 173.261  1.00  0.00     0.094 A
ATOM      6  C   UNL     1       0.877  59.302 174.392  1.00  0.00     0.123 A
ATOM      7  C   UNL     1      -0.151  60.212 174.617  1.00  0.00     0.093 A
ATOM      8  C   UNL     1      -0.373  61.229 173.690  1.00  0.00     0.134 A
ATOM      9  C   UNL     1       0.431  61.334 172.547  1.00  0.00     0.107 A
ATOM     10  C   UNL     1       0.220  62.397 171.551  1.00  0.00     0.204 C
ATOM     11  O   UNL     1      -0.687  63.209 171.717  1.00  0.00    -0.288 OA
ENDROOT
BRANCH   1  12
ATOM     12  C   UNL     1       1.031  63.433 169.312  1.00  0.00    -0.011 A
ATOM     13  C   UNL     1       0.830  65.375 167.271  1.00  0.00     0.118 A
ATOM     14  C   UNL     1       1.788  65.508 168.275  1.00  0.00     0.047 A
ATOM     15  C   UNL     1      -0.022  64.271 167.286  1.00  0.00     0.047 A
ATOM     16  C   UNL     1       1.886  64.543 169.287  1.00  0.00     0.013 A
ATOM     17  C   UNL     1       0.077  63.306 168.294  1.00  0.00     0.013 A
BRANCH  13  18
ATOM     18  O   UNL     1       0.627  66.241 166.231  1.00  0.00    -0.497 OA
ATOM     19  C   UNL     1       1.004  65.789 164.937  1.00  0.00     0.278 C
ENDBRANCH  13  18
ENDBRANCH   1  12
BRANCH   8  20
ATOM     20  O   UNL     1      -1.398  62.094 173.964  1.00  0.00    -0.507 OA
ATOM     21  H   UNL     1      -1.283  62.421 174.886  1.00  0.00     0.293 HD
ENDBRANCH   8  20
BRANCH   6  22
ATOM     22  O   UNL     1       1.133  58.290 175.270  1.00  0.00    -0.508 OA
ATOM     23  H   UNL     1       2.039  57.969 175.123  1.00  0.00     0.293 HD
ENDBRANCH   6  22
TORSDOF 4
