ROOT
ATOM      1  C   UNL     1       7.050  26.444  55.363  1.00  0.00     0.065 C
ATOM      2  C   UNL     1       8.196  26.778  55.978  1.00  0.00     0.208 C
ATOM      3  O   UNL     1       8.575  26.441  57.254  1.00  0.00    -0.463 OA
ATOM      4  C   UNL     1       7.710  25.681  57.998  1.00  0.00     0.145 A
ATOM      5  C   UNL     1       8.108  25.352  59.294  1.00  0.00     0.094 A
ATOM      6  C   UNL     1       7.269  24.581  60.094  1.00  0.00     0.123 A
ATOM      7  C   UNL     1       6.039  24.133  59.621  1.00  0.00     0.093 A
ATOM      8  C   UNL     1       5.648  24.465  58.325  1.00  0.00     0.134 A
ATOM      9  C   UNL     1       6.482  25.240  57.509  1.00  0.00     0.107 A
ATOM     10  C   UNL     1       6.096  25.605  56.137  1.00  0.00     0.204 C
ATOM     11  O   UNL     1       5.020  25.215  55.687  1.00  0.00    -0.288 OA
ENDROOT
BRANCH   1  12
ATOM     12  C   UNL     1       6.786  26.872  53.977  1.00  0.00    -0.011 A
ATOM     13  C   UNL     1       6.292  27.679  51.315  1.00  0.00     0.118 A
ATOM     14  C   UNL     1       6.918  26.461  51.575  1.00  0.00     0.047 A
ATOM     15  C   UNL     1       5.911  28.489  52.385  1.00  0.00     0.047 A
ATOM     16  C   UNL     1       7.162  26.062  52.896  1.00  0.00     0.013 A
ATOM     17  C   UNL     1       6.152  28.091  53.704  1.00  0.00     0.013 A
BRANCH  13  18
ATOM     18  O   UNL     1       5.998  28.187  50.080  1.00  0.00    -0.497 OA
ATOM     19  C   UNL     1       5.201  29.364  50.042  1.00  0.00     0.278 C
ENDBRANCH  13  18
ENDBRANCH   1  12
BRANCH   8  20
ATOM     20  O   UNL     1       4.428  23.996  57.915  1.00  0.00    -0.507 OA
ATOM     21  H   UNL     1       4.527  23.650  56.998  1.00  0.00     0.293 HD
ENDBRANCH   8  20
BRANCH   6  22
ATOM     22  O   UNL     1       7.695  24.282  61.354  1.00  0.00    -0.508 OA
ATOM     23  H   UNL     1       8.545  23.814  61.295  1.00  0.00     0.293 HD
ENDBRANCH   6  22
TORSDOF 4
