ROOT
ATOM      1  C   UNL     1       3.646  20.919  32.686  1.00  0.00     0.065 C
ATOM      2  C   UNL     1       2.564  20.828  33.476  1.00  0.00     0.208 C
ATOM      3  O   UNL     1       1.398  21.545  33.363  1.00  0.00    -0.463 OA
ATOM      4  C   UNL     1       1.303  22.454  32.341  1.00  0.00     0.145 A
ATOM      5  C   UNL     1       0.114  23.178  32.244  1.00  0.00     0.094 A
ATOM      6  C   UNL     1      -0.037  24.113  31.224  1.00  0.00     0.123 A
ATOM      7  C   UNL     1       0.978  24.337  30.299  1.00  0.00     0.093 A
ATOM      8  C   UNL     1       2.164  23.611  30.402  1.00  0.00     0.134 A
ATOM      9  C   UNL     1       2.330  22.666  31.423  1.00  0.00     0.107 A
ATOM     10  C   UNL     1       3.569  21.884  31.556  1.00  0.00     0.204 C
ATOM     11  O   UNL     1       4.480  22.053  30.748  1.00  0.00    -0.288 OA
ENDROOT
BRANCH   1  12
ATOM     12  C   UNL     1       4.827  20.070  32.925  1.00  0.00    -0.011 A
ATOM     13  C   UNL     1       7.085  18.432  33.370  1.00  0.00     0.118 A
ATOM     14  C   UNL     1       6.332  18.289  32.206  1.00  0.00     0.047 A
ATOM     15  C   UNL     1       6.711  19.396  34.307  1.00  0.00     0.047 A
ATOM     16  C   UNL     1       5.212  19.102  31.987  1.00  0.00     0.013 A
ATOM     17  C   UNL     1       5.595  20.210  34.088  1.00  0.00     0.013 A
BRANCH  13  18
ATOM     18  O   UNL     1       8.193  17.706  33.708  1.00  0.00    -0.497 OA
ATOM     19  C   UNL     1       9.323  17.820  32.851  1.00  0.00     0.278 C
ENDBRANCH  13  18
ENDBRANCH   1  12
BRANCH   8  20
ATOM     20  O   UNL     1       3.127  23.875  29.465  1.00  0.00    -0.507 OA
ATOM     21  H   UNL     1       2.942  24.763  29.081  1.00  0.00     0.293 HD
ENDBRANCH   8  20
BRANCH   6  22
ATOM     22  O   UNL     1      -1.214  24.799  31.164  1.00  0.00    -0.508 OA
ATOM     23  H   UNL     1      -1.025  25.727  30.942  1.00  0.00     0.293 HD
ENDBRANCH   6  22
TORSDOF 4
