ROOT
ATOM      1  O   UNL     1       2.916  22.793  30.193  1.00  0.00    -0.426 OA
ENDROOT
BRANCH   1   2
ATOM      2  C   UNL     1       3.716  21.785  30.741  1.00  0.00     0.294 C
ATOM      3  C   UNL     1       6.634  19.029  33.800  1.00  0.00     0.203 A
ATOM      4  C   UNL     1       6.124  18.814  32.502  1.00  0.00     0.176 A
ATOM      5  C   UNL     1       6.315  20.221  34.460  1.00  0.00     0.165 A
ATOM      6  C   UNL     1       5.313  19.762  31.870  1.00  0.00     0.111 A
ATOM      7  C   UNL     1       5.505  21.173  33.835  1.00  0.00     0.098 A
ATOM      8  C   UNL     1       5.010  20.941  32.548  1.00  0.00     0.149 A
ATOM      9  C   UNL     1       4.753  19.589  30.512  1.00  0.00     0.200 C
ATOM     10  O   UNL     1       4.224  21.936  32.023  1.00  0.00    -0.425 OA
ATOM     11  C   UNL     1       3.932  20.696  29.997  1.00  0.00     0.142 C
ATOM     12  O   UNL     1       4.924  18.604  29.806  1.00  0.00    -0.289 OA
BRANCH   3  13
ATOM     13  O   UNL     1       7.408  17.989  34.253  1.00  0.00    -0.490 OA
ATOM     14  C   UNL     1       8.752  17.898  33.799  1.00  0.00     0.278 C
ENDBRANCH   3  13
BRANCH   4  15
ATOM     15  O   UNL     1       6.452  17.639  31.876  1.00  0.00    -0.504 OA
ATOM     16  H   UNL     1       5.801  16.977  32.182  1.00  0.00     0.293 HD
ENDBRANCH   4  15
BRANCH   5  17
ATOM     17  O   UNL     1       6.776  20.492  35.716  1.00  0.00    -0.504 OA
ATOM     18  H   UNL     1       6.049  20.823  36.270  1.00  0.00     0.293 HD
ENDBRANCH   5  17
ENDBRANCH   1   2
BRANCH   1  19
ATOM     19  C   UNL     1       1.828  23.195  30.926  1.00  0.00     0.131 A
ATOM     20  C   UNL     1       1.440  24.536  30.953  1.00  0.00     0.051 A
ATOM     21  C   UNL     1       1.080  22.222  31.586  1.00  0.00     0.051 A
ATOM     22  C   UNL     1       0.310  24.908  31.683  1.00  0.00     0.050 A
ATOM     23  C   UNL     1      -0.052  22.595  32.315  1.00  0.00     0.050 A
ATOM     24  C   UNL     1      -0.424  23.937  32.358  1.00  0.00     0.115 A
BRANCH  24  25
ATOM     25  O   UNL     1      -1.521  24.345  33.057  1.00  0.00    -0.508 OA
ATOM     26  H   UNL     1      -1.261  25.073  33.646  1.00  0.00     0.293 HD
ENDBRANCH  24  25
ENDBRANCH   1  19
TORSDOF 6
