ROOT
ATOM      1  O   UNL     1       2.623  61.688 169.848  1.00  0.00    -0.426 OA
ENDROOT
BRANCH   1   2
ATOM      2  C   UNL     1       2.482  62.324 168.611  1.00  0.00     0.294 C
ATOM      3  C   UNL     1       1.960  65.758 164.950  1.00  0.00     0.203 A
ATOM      4  C   UNL     1       2.067  64.352 164.944  1.00  0.00     0.176 A
ATOM      5  C   UNL     1       2.002  66.431 166.176  1.00  0.00     0.165 A
ATOM      6  C   UNL     1       2.214  63.625 166.130  1.00  0.00     0.111 A
ATOM      7  C   UNL     1       2.150  65.713 167.366  1.00  0.00     0.098 A
ATOM      8  C   UNL     1       2.254  64.319 167.338  1.00  0.00     0.149 A
ATOM      9  C   UNL     1       2.329  62.152 166.182  1.00  0.00     0.200 C
ATOM     10  O   UNL     1       2.395  63.708 168.558  1.00  0.00    -0.425 OA
ATOM     11  C   UNL     1       2.463  61.552 167.520  1.00  0.00     0.142 C
ATOM     12  O   UNL     1       2.322  61.415 165.205  1.00  0.00    -0.289 OA
BRANCH   3  13
ATOM     13  O   UNL     1       1.822  66.292 163.692  1.00  0.00    -0.490 OA
ATOM     14  C   UNL     1       0.544  66.773 163.298  1.00  0.00     0.278 C
ENDBRANCH   3  13
BRANCH   4  15
ATOM     15  O   UNL     1       2.021  63.715 163.731  1.00  0.00    -0.504 OA
ATOM     16  H   UNL     1       1.828  62.777 163.923  1.00  0.00     0.293 HD
ENDBRANCH   4  15
BRANCH   5  17
ATOM     17  O   UNL     1       1.904  67.791 166.252  1.00  0.00    -0.504 OA
ATOM     18  H   UNL     1       2.766  68.172 166.491  1.00  0.00     0.293 HD
ENDBRANCH   5  17
ENDBRANCH   1   2
BRANCH   1  19
ATOM     19  C   UNL     1       1.606  61.853 170.755  1.00  0.00     0.131 A
ATOM     20  C   UNL     1       0.619  62.820 170.555  1.00  0.00     0.051 A
ATOM     21  C   UNL     1       1.545  60.986 171.845  1.00  0.00     0.051 A
ATOM     22  C   UNL     1      -0.419  62.942 171.480  1.00  0.00     0.050 A
ATOM     23  C   UNL     1       0.504  61.108 172.768  1.00  0.00     0.050 A
ATOM     24  C   UNL     1      -0.466  62.088 172.578  1.00  0.00     0.115 A
BRANCH  24  25
ATOM     25  O   UNL     1      -1.498  62.243 173.455  1.00  0.00    -0.508 OA
ATOM     26  H   UNL     1      -1.562  61.445 174.005  1.00  0.00     0.293 HD
ENDBRANCH  24  25
ENDBRANCH   1  19
TORSDOF 6
