ROOT
ATOM      1  O   UNL     1       8.119  26.093  54.502  1.00  0.00    -0.426 OA
ENDROOT
BRANCH   1   2
ATOM      2  C   UNL     1       7.469  26.881  53.548  1.00  0.00     0.294 C
ATOM      3  C   UNL     1       5.040  30.615  51.175  1.00  0.00     0.203 A
ATOM      4  C   UNL     1       5.507  29.350  50.758  1.00  0.00     0.176 A
ATOM      5  C   UNL     1       5.252  31.006  52.501  1.00  0.00     0.165 A
ATOM      6  C   UNL     1       6.172  28.491  51.638  1.00  0.00     0.111 A
ATOM      7  C   UNL     1       5.916  30.153  53.387  1.00  0.00     0.098 A
ATOM      8  C   UNL     1       6.371  28.904  52.954  1.00  0.00     0.149 A
ATOM      9  C   UNL     1       6.682  27.156  51.255  1.00  0.00     0.200 C
ATOM     10  O   UNL     1       7.010  28.142  53.899  1.00  0.00    -0.425 OA
ATOM     11  C   UNL     1       7.343  26.379  52.316  1.00  0.00     0.142 C
ATOM     12  O   UNL     1       6.590  26.667  50.137  1.00  0.00    -0.289 OA
BRANCH   3  13
ATOM     13  O   UNL     1       4.414  31.314  50.172  1.00  0.00    -0.490 OA
ATOM     14  C   UNL     1       2.995  31.387  50.183  1.00  0.00     0.278 C
ENDBRANCH   3  13
BRANCH   4  15
ATOM     15  O   UNL     1       5.287  28.989  49.454  1.00  0.00    -0.504 OA
ATOM     16  H   UNL     1       4.511  29.502  49.157  1.00  0.00     0.293 HD
ENDBRANCH   4  15
BRANCH   5  17
ATOM     17  O   UNL     1       4.825  32.216  52.969  1.00  0.00    -0.504 OA
ATOM     18  H   UNL     1       4.937  32.255  53.934  1.00  0.00     0.293 HD
ENDBRANCH   5  17
ENDBRANCH   1   2
BRANCH   1  19
ATOM     19  C   UNL     1       7.401  25.745  55.619  1.00  0.00     0.131 A
ATOM     20  C   UNL     1       6.207  25.031  55.508  1.00  0.00     0.051 A
ATOM     21  C   UNL     1       7.930  26.063  56.870  1.00  0.00     0.051 A
ATOM     22  C   UNL     1       5.517  24.665  56.665  1.00  0.00     0.050 A
ATOM     23  C   UNL     1       7.239  25.695  58.026  1.00  0.00     0.050 A
ATOM     24  C   UNL     1       6.036  25.001  57.912  1.00  0.00     0.115 A
BRANCH  24  25
ATOM     25  O   UNL     1       5.329  24.623  59.014  1.00  0.00    -0.508 OA
ATOM     26  H   UNL     1       5.952  24.432  59.734  1.00  0.00     0.293 HD
ENDBRANCH  24  25
ENDBRANCH   1  19
TORSDOF 6
