ROOT
ATOM      1  O   UNL     1       4.467  27.918  50.440  1.00  0.00    -0.462 OA
ENDROOT
BRANCH   1   2
ATOM      2  C   UNL     1       4.957  27.555  51.664  1.00  0.00     0.126 A
ATOM      3  C   UNL     1       6.070  25.761  56.312  1.00  0.00     0.065 C
ATOM      4  C   UNL     1       4.871  25.334  55.883  1.00  0.00     0.208 C
ATOM      5  C   UNL     1       6.845  26.635  55.386  1.00  0.00     0.200 C
ATOM      6  O   UNL     1       4.268  25.632  54.685  1.00  0.00    -0.463 OA
ATOM      7  C   UNL     1       6.208  26.961  54.097  1.00  0.00     0.066 A
ATOM      8  O   UNL     1       7.956  27.076  55.657  1.00  0.00    -0.288 OA
ATOM      9  C   UNL     1       4.948  26.444  53.813  1.00  0.00     0.141 A
ATOM     10  C   UNL     1       6.853  27.777  53.167  1.00  0.00     0.020 A
ATOM     11  C   UNL     1       4.320  26.738  52.598  1.00  0.00     0.094 A
ATOM     12  C   UNL     1       6.226  28.068  51.953  1.00  0.00     0.047 A
BRANCH   3  13
ATOM     13  C   UNL     1       6.591  25.342  57.628  1.00  0.00    -0.011 A
ATOM     14  C   UNL     1       7.766  25.909  58.143  1.00  0.00     0.013 A
ATOM     15  C   UNL     1       8.268  25.515  59.387  1.00  0.00     0.047 A
ATOM     16  C   UNL     1       7.593  24.550  60.122  1.00  0.00     0.115 A
ATOM     17  C   UNL     1       5.922  24.373  58.395  1.00  0.00     0.013 A
ATOM     18  C   UNL     1       6.424  23.976  59.637  1.00  0.00     0.047 A
BRANCH  16  19
ATOM     19  O   UNL     1       8.046  24.136  61.339  1.00  0.00    -0.508 OA
ATOM     20  H   UNL     1       8.596  23.346  61.212  1.00  0.00     0.293 HD
ENDBRANCH  16  19
ENDBRANCH   3  13
ENDBRANCH   1   2
BRANCH   1  21
ATOM     21  C   UNL     1       3.043  27.931  50.252  1.00  0.00     0.339 C
ATOM     22  C   UNL     1       2.451  28.926  51.274  1.00  0.00     0.214 C
ATOM     23  O   UNL     1       2.682  28.245  48.900  1.00  0.00    -0.332 OA
ATOM     24  C   UNL     1       2.923  30.361  50.971  1.00  0.00     0.180 C
ATOM     25  C   UNL     1       2.547  29.651  48.597  1.00  0.00     0.179 C
ATOM     26  C   UNL     1       3.386  30.541  49.515  1.00  0.00     0.177 C
BRANCH  22  27
ATOM     27  O   UNL     1       1.016  28.893  51.239  1.00  0.00    -0.384 OA
ATOM     28  H   UNL     1       0.713  29.534  50.572  1.00  0.00     0.211 HD
ENDBRANCH  22  27
BRANCH  24  29
ATOM     29  O   UNL     1       4.006  30.751  51.836  1.00  0.00    -0.387 OA
ATOM     30  H   UNL     1       4.634  30.008  51.886  1.00  0.00     0.211 HD
ENDBRANCH  24  29
BRANCH  25  31
ATOM     31  C   UNL     1       2.935  29.827  47.124  1.00  0.00     0.191 C
BRANCH  31  32
ATOM     32  O   UNL     1       2.511  31.113  46.662  1.00  0.00    -0.394 OA
ATOM     33  H   UNL     1       2.433  31.664  47.463  1.00  0.00     0.210 HD
ENDBRANCH  31  32
ENDBRANCH  25  31
BRANCH  26  34
ATOM     34  O   UNL     1       3.297  31.920  49.153  1.00  0.00    -0.387 OA
ATOM     35  H   UNL     1       2.720  31.964  48.366  1.00  0.00     0.211 HD
ENDBRANCH  26  34
ENDBRANCH   1  21
TORSDOF 9
