ROOT
ATOM      1  C   UNL     1       2.969  21.872  33.159  1.00  0.00     0.065 C
ATOM      2  C   UNL     1       3.523  21.989  34.377  1.00  0.00     0.208 C
ATOM      3  O   UNL     1       4.624  21.319  34.852  1.00  0.00    -0.463 OA
ATOM      4  C   UNL     1       5.243  20.431  34.009  1.00  0.00     0.141 A
ATOM      5  C   UNL     1       4.803  20.198  32.707  1.00  0.00     0.066 A
ATOM      6  C   UNL     1       3.625  20.930  32.206  1.00  0.00     0.200 C
ATOM      7  O   UNL     1       3.224  20.756  31.062  1.00  0.00    -0.288 OA
ATOM      8  C   UNL     1       5.475  19.282  31.891  1.00  0.00     0.020 A
ATOM      9  C   UNL     1       6.588  18.604  32.387  1.00  0.00     0.047 A
ATOM     10  C   UNL     1       7.020  18.843  33.688  1.00  0.00     0.119 A
ATOM     11  C   UNL     1       6.357  19.753  34.507  1.00  0.00     0.094 A
ENDROOT
BRANCH   1  12
ATOM     12  C   UNL     1       1.786  22.675  32.792  1.00  0.00    -0.011 A
ATOM     13  C   UNL     1       1.868  24.075  32.729  1.00  0.00     0.013 A
ATOM     14  C   UNL     1       0.751  24.844  32.386  1.00  0.00     0.047 A
ATOM     15  C   UNL     1      -0.454  24.212  32.104  1.00  0.00     0.115 A
ATOM     16  C   UNL     1       0.559  22.061  32.494  1.00  0.00     0.013 A
ATOM     17  C   UNL     1      -0.558  22.828  32.155  1.00  0.00     0.047 A
BRANCH  15  18
ATOM     18  O   UNL     1      -1.567  24.922  31.765  1.00  0.00    -0.508 OA
ATOM     19  H   UNL     1      -2.032  25.173  32.580  1.00  0.00     0.293 HD
ENDBRANCH  15  18
ENDBRANCH   1  12
BRANCH  10  20
ATOM     20  O   UNL     1       8.111  18.156  34.129  1.00  0.00    -0.508 OA
ATOM     21  H   UNL     1       8.912  18.558  33.755  1.00  0.00     0.293 HD
ENDBRANCH  10  20
TORSDOF 3
