ROOT
ATOM      1  C   UNL     1       0.470  62.706 170.828  1.00  0.00     0.065 C
ATOM      2  C   UNL     1      -0.528  62.972 171.687  1.00  0.00     0.208 C
ATOM      3  O   UNL     1      -0.839  62.281 172.833  1.00  0.00    -0.463 OA
ATOM      4  C   UNL     1      -0.059  61.200 173.156  1.00  0.00     0.141 A
ATOM      5  C   UNL     1       1.024  60.793 172.379  1.00  0.00     0.066 A
ATOM      6  C   UNL     1       1.352  61.549 171.156  1.00  0.00     0.200 C
ATOM      7  O   UNL     1       2.307  61.223 170.461  1.00  0.00    -0.288 OA
ATOM      8  C   UNL     1       1.786  59.684 172.759  1.00  0.00     0.020 A
ATOM      9  C   UNL     1       1.456  58.986 173.921  1.00  0.00     0.047 A
ATOM     10  C   UNL     1       0.373  59.400 174.691  1.00  0.00     0.119 A
ATOM     11  C   UNL     1      -0.391  60.503 174.320  1.00  0.00     0.094 A
ENDROOT
BRANCH   1  12
ATOM     12  C   UNL     1       0.684  63.555 169.640  1.00  0.00    -0.011 A
ATOM     13  C   UNL     1      -0.060  63.342 168.469  1.00  0.00     0.013 A
ATOM     14  C   UNL     1       0.140  64.140 167.338  1.00  0.00     0.047 A
ATOM     15  C   UNL     1       1.086  65.156 167.375  1.00  0.00     0.115 A
ATOM     16  C   UNL     1       1.629  64.594 169.655  1.00  0.00     0.013 A
ATOM     17  C   UNL     1       1.831  65.390 168.525  1.00  0.00     0.047 A
BRANCH  15  18
ATOM     18  O   UNL     1       1.313  65.958 166.297  1.00  0.00    -0.508 OA
ATOM     19  H   UNL     1       0.666  65.736 165.607  1.00  0.00     0.293 HD
ENDBRANCH  15  18
ENDBRANCH   1  12
BRANCH  10  20
ATOM     20  O   UNL     1       0.089  58.687 175.817  1.00  0.00    -0.508 OA
ATOM     21  H   UNL     1       0.043  57.743 175.593  1.00  0.00     0.293 HD
ENDBRANCH  10  20
TORSDOF 3
