ROOT
ATOM      1  O   UNL     1       1.543  22.781  33.179  1.00  0.00    -0.462 OA
ENDROOT
BRANCH   1   2
ATOM      2  C   UNL     1       2.643  21.977  33.299  1.00  0.00     0.126 A
ATOM      3  C   UNL     1       6.569  18.731  32.957  1.00  0.00     0.065 C
ATOM      4  C   UNL     1       5.826  18.740  31.839  1.00  0.00     0.208 C
ATOM      5  C   UNL     1       6.146  19.647  34.054  1.00  0.00     0.200 C
ATOM      6  O   UNL     1       4.700  19.491  31.600  1.00  0.00    -0.463 OA
ATOM      7  C   UNL     1       4.939  20.459  33.809  1.00  0.00     0.066 A
ATOM      8  O   UNL     1       6.750  19.740  35.117  1.00  0.00    -0.288 OA
ATOM      9  C   UNL     1       4.276  20.337  32.592  1.00  0.00     0.141 A
ATOM     10  C   UNL     1       4.463  21.342  34.779  1.00  0.00     0.020 A
ATOM     11  C   UNL     1       3.128  21.094  32.334  1.00  0.00     0.094 A
ATOM     12  C   UNL     1       3.318  22.099  34.519  1.00  0.00     0.047 A
BRANCH   3  13
ATOM     13  C   UNL     1       7.764  17.871  33.060  1.00  0.00    -0.011 A
ATOM     14  C   UNL     1       7.634  16.493  33.284  1.00  0.00     0.013 A
ATOM     15  C   UNL     1       8.762  15.672  33.387  1.00  0.00     0.047 A
ATOM     16  C   UNL     1      10.028  16.232  33.264  1.00  0.00     0.115 A
ATOM     17  C   UNL     1       9.055  18.411  32.932  1.00  0.00     0.013 A
ATOM     18  C   UNL     1      10.184  17.593  33.037  1.00  0.00     0.047 A
BRANCH  16  19
ATOM     19  O   UNL     1      11.154  15.470  33.357  1.00  0.00    -0.508 OA
ATOM     20  H   UNL     1      11.339  15.085  32.486  1.00  0.00     0.293 HD
ENDBRANCH  16  19
ENDBRANCH   3  13
ENDBRANCH   1   2
BRANCH   1  21
ATOM     21  C   UNL     1       0.639  22.542  32.090  1.00  0.00     0.339 C
ATOM     22  C   UNL     1      -0.720  23.166  32.472  1.00  0.00     0.214 C
ATOM     23  O   UNL     1       1.149  23.042  30.847  1.00  0.00    -0.332 OA
ATOM     24  C   UNL     1      -0.601  24.698  32.583  1.00  0.00     0.180 C
ATOM     25  C   UNL     1       0.843  24.422  30.553  1.00  0.00     0.179 C
ATOM     26  C   UNL     1       0.605  25.260  31.810  1.00  0.00     0.177 C
BRANCH  22  27
ATOM     27  O   UNL     1      -1.717  22.850  31.488  1.00  0.00    -0.384 OA
ATOM     28  H   UNL     1      -2.177  23.673  31.245  1.00  0.00     0.211 HD
ENDBRANCH  22  27
BRANCH  24  29
ATOM     29  O   UNL     1      -0.486  25.118  33.956  1.00  0.00    -0.387 OA
ATOM     30  H   UNL     1      -1.128  24.607  34.481  1.00  0.00     0.211 HD
ENDBRANCH  24  29
BRANCH  25  31
ATOM     31  C   UNL     1       2.006  24.969  29.717  1.00  0.00     0.191 C
BRANCH  31  32
ATOM     32  O   UNL     1       2.994  23.949  29.535  1.00  0.00    -0.394 OA
ATOM     33  H   UNL     1       2.791  23.269  30.205  1.00  0.00     0.210 HD
ENDBRANCH  31  32
ENDBRANCH  25  31
BRANCH  26  34
ATOM     34  O   UNL     1       0.376  26.637  31.503  1.00  0.00    -0.387 OA
ATOM     35  H   UNL     1       0.982  27.152  32.068  1.00  0.00     0.211 HD
ENDBRANCH  26  34
ENDBRANCH   1  21
TORSDOF 9
