ROOT
ATOM      1  O   UNL     1       1.250  65.478 166.368  1.00  0.00    -0.462 OA
ENDROOT
BRANCH   1   2
ATOM      2  C   UNL     1       1.294  64.602 167.416  1.00  0.00     0.126 A
ATOM      3  C   UNL     1       0.722  61.675 171.561  1.00  0.00     0.065 C
ATOM      4  C   UNL     1      -0.291  62.545 171.416  1.00  0.00     0.208 C
ATOM      5  C   UNL     1       1.787  61.702 170.517  1.00  0.00     0.200 C
ATOM      6  O   UNL     1      -0.445  63.475 170.417  1.00  0.00    -0.463 OA
ATOM      7  C   UNL     1       1.631  62.696 169.440  1.00  0.00     0.066 A
ATOM      8  O   UNL     1       2.754  60.949 170.530  1.00  0.00    -0.288 OA
ATOM      9  C   UNL     1       0.521  63.535 169.446  1.00  0.00     0.141 A
ATOM     10  C   UNL     1       2.579  62.801 168.421  1.00  0.00     0.020 A
ATOM     11  C   UNL     1       0.350  64.488 168.437  1.00  0.00     0.094 A
ATOM     12  C   UNL     1       2.405  63.751 167.412  1.00  0.00     0.047 A
BRANCH   3  13
ATOM     13  C   UNL     1       0.742  60.723 172.688  1.00  0.00    -0.011 A
ATOM     14  C   UNL     1       1.608  59.619 172.674  1.00  0.00     0.013 A
ATOM     15  C   UNL     1       1.630  58.710 173.737  1.00  0.00     0.047 A
ATOM     16  C   UNL     1       0.783  58.905 174.820  1.00  0.00     0.115 A
ATOM     17  C   UNL     1      -0.099  60.901 173.799  1.00  0.00     0.013 A
ATOM     18  C   UNL     1      -0.080  59.993 174.861  1.00  0.00     0.047 A
BRANCH  16  19
ATOM     19  O   UNL     1       0.771  58.045 175.877  1.00  0.00    -0.508 OA
ATOM     20  H   UNL     1      -0.097  57.611 175.913  1.00  0.00     0.293 HD
ENDBRANCH  16  19
ENDBRANCH   3  13
ENDBRANCH   1   2
BRANCH   1  21
ATOM     21  C   UNL     1       1.409  66.878 166.642  1.00  0.00     0.339 C
ATOM     22  C   UNL     1       2.208  67.491 165.471  1.00  0.00     0.214 C
ATOM     23  O   UNL     1       0.150  67.532 166.855  1.00  0.00    -0.332 OA
ATOM     24  C   UNL     1       1.399  67.414 164.163  1.00  0.00     0.180 C
ATOM     25  C   UNL     1      -0.507  68.030 165.670  1.00  0.00     0.179 C
ATOM     26  C   UNL     1      -0.113  67.265 164.405  1.00  0.00     0.177 C
BRANCH  22  27
ATOM     27  O   UNL     1       2.525  68.865 165.740  1.00  0.00    -0.384 OA
ATOM     28  H   UNL     1       3.484  68.986 165.616  1.00  0.00     0.211 HD
ENDBRANCH  22  27
BRANCH  24  29
ATOM     29  O   UNL     1       1.830  66.312 163.342  1.00  0.00    -0.387 OA
ATOM     30  H   UNL     1       1.658  66.545 162.412  1.00  0.00     0.211 HD
ENDBRANCH  24  29
BRANCH  25  31
ATOM     31  C   UNL     1      -2.016  67.955 165.933  1.00  0.00     0.191 C
BRANCH  31  32
ATOM     32  O   UNL     1      -2.589  66.891 165.168  1.00  0.00    -0.394 OA
ATOM     33  H   UNL     1      -3.442  66.692 165.598  1.00  0.00     0.210 HD
ENDBRANCH  31  32
ENDBRANCH  25  31
BRANCH  26  34
ATOM     34  O   UNL     1      -0.828  67.724 163.256  1.00  0.00    -0.387 OA
ATOM     35  H   UNL     1      -1.014  66.935 162.711  1.00  0.00     0.211 HD
ENDBRANCH  26  34
ENDBRANCH   1  21
TORSDOF 9
