ROOT
ATOM      1  C   UNL     1       6.934  26.510  55.140  1.00  0.00     0.065 C
ATOM      2  C   UNL     1       8.084  26.818  55.761  1.00  0.00     0.208 C
ATOM      3  O   UNL     1       8.459  26.460  57.033  1.00  0.00    -0.463 OA
ATOM      4  C   UNL     1       7.580  25.703  57.766  1.00  0.00     0.141 A
ATOM      5  C   UNL     1       6.347  25.288  57.268  1.00  0.00     0.066 A
ATOM      6  C   UNL     1       5.960  25.672  55.898  1.00  0.00     0.200 C
ATOM      7  O   UNL     1       4.888  25.309  55.429  1.00  0.00    -0.288 OA
ATOM      8  C   UNL     1       5.492  24.516  58.061  1.00  0.00     0.020 A
ATOM      9  C   UNL     1       5.881  24.164  59.354  1.00  0.00     0.047 A
ATOM     10  C   UNL     1       7.115  24.583  59.842  1.00  0.00     0.119 A
ATOM     11  C   UNL     1       7.972  25.352  59.060  1.00  0.00     0.094 A
ENDROOT
BRANCH   1  12
ATOM     12  C   UNL     1       6.682  26.962  53.757  1.00  0.00    -0.011 A
ATOM     13  C   UNL     1       7.145  26.210  52.667  1.00  0.00     0.013 A
ATOM     14  C   UNL     1       6.915  26.633  51.354  1.00  0.00     0.047 A
ATOM     15  C   UNL     1       6.219  27.813  51.128  1.00  0.00     0.115 A
ATOM     16  C   UNL     1       5.973  28.147  53.501  1.00  0.00     0.013 A
ATOM     17  C   UNL     1       5.745  28.573  52.191  1.00  0.00     0.047 A
BRANCH  15  18
ATOM     18  O   UNL     1       5.971  28.263  49.866  1.00  0.00    -0.508 OA
ATOM     19  H   UNL     1       5.975  29.235  49.879  1.00  0.00     0.293 HD
ENDBRANCH  15  18
ENDBRANCH   1  12
BRANCH  10  20
ATOM     20  O   UNL     1       7.451  24.215  61.111  1.00  0.00    -0.508 OA
ATOM     21  H   UNL     1       7.406  24.993  61.690  1.00  0.00     0.293 HD
ENDBRANCH  10  20
TORSDOF 3
