ROOT
ATOM      1  C   UNL     1       4.159  19.943  30.928  1.00  0.00     0.079 C
ATOM      2  C   UNL     1       2.756  20.553  30.967  1.00  0.00     0.164 C
ATOM      3  C   UNL     1       2.804  21.866  31.772  1.00  0.00     0.232 C
ATOM      4  O   UNL     1       3.168  21.573  33.134  1.00  0.00    -0.482 OA
ATOM      5  C   UNL     1       4.338  20.872  33.266  1.00  0.00     0.131 A
ATOM      6  C   UNL     1       4.964  20.973  34.509  1.00  0.00     0.093 A
ATOM      7  C   UNL     1       6.155  20.299  34.735  1.00  0.00     0.122 A
ATOM      8  C   UNL     1       6.726  19.518  33.740  1.00  0.00     0.092 A
ATOM      9  C   UNL     1       6.083  19.402  32.506  1.00  0.00     0.126 A
ATOM     10  C   UNL     1       4.873  20.064  32.250  1.00  0.00     0.039 A
ENDROOT
BRANCH   2  11
ATOM     11  O   UNL     1       1.862  19.591  31.549  1.00  0.00    -0.389 OA
ATOM     12  H   UNL     1       2.084  18.724  31.159  1.00  0.00     0.211 HD
ENDBRANCH   2  11
BRANCH   3  13
ATOM     13  C   UNL     1       1.533  22.704  31.816  1.00  0.00    -0.001 A
ATOM     14  C   UNL     1       0.254  22.161  32.003  1.00  0.00     0.057 A
ATOM     15  C   UNL     1       1.644  24.101  31.637  1.00  0.00     0.012 A
ATOM     16  C   UNL     1      -0.860  22.993  32.008  1.00  0.00     0.157 A
ATOM     17  C   UNL     1       0.520  24.933  31.648  1.00  0.00     0.050 A
ATOM     18  C   UNL     1      -0.732  24.367  31.833  1.00  0.00     0.157 A
BRANCH  16  19
ATOM     19  O   UNL     1      -2.098  22.444  32.187  1.00  0.00    -0.504 OA
ATOM     20  H   UNL     1      -1.920  21.547  32.533  1.00  0.00     0.293 HD
ENDBRANCH  16  19
BRANCH  18  21
ATOM     21  O   UNL     1      -1.873  25.121  31.854  1.00  0.00    -0.504 OA
ATOM     22  H   UNL     1      -2.268  25.043  32.740  1.00  0.00     0.293 HD
ENDBRANCH  18  21
ENDBRANCH   3  13
BRANCH   9  23
ATOM     23  O   UNL     1       6.713  18.613  31.585  1.00  0.00    -0.507 OA
ATOM     24  H   UNL     1       6.955  17.763  31.983  1.00  0.00     0.293 HD
ENDBRANCH   9  23
BRANCH   7  25
ATOM     25  O   UNL     1       6.743  20.433  35.959  1.00  0.00    -0.508 OA
ATOM     26  H   UNL     1       6.120  20.122  36.636  1.00  0.00     0.293 HD
ENDBRANCH   7  25
TORSDOF 6
