ROOT
ATOM      1  C   UNL     1      -0.087  63.500 170.312  1.00  0.00     0.079 C
ATOM      2  C   UNL     1       0.810  63.846 169.121  1.00  0.00     0.164 C
ATOM      3  C   UNL     1       1.328  62.539 168.490  1.00  0.00     0.232 C
ATOM      4  O   UNL     1       2.155  61.847 169.446  1.00  0.00    -0.482 OA
ATOM      5  C   UNL     1       1.544  61.606 170.649  1.00  0.00     0.131 A
ATOM      6  C   UNL     1       2.091  60.568 171.404  1.00  0.00     0.093 A
ATOM      7  C   UNL     1       1.536  60.248 172.636  1.00  0.00     0.122 A
ATOM      8  C   UNL     1       0.448  60.957 173.126  1.00  0.00     0.092 A
ATOM      9  C   UNL     1      -0.080  62.009 172.376  1.00  0.00     0.126 A
ATOM     10  C   UNL     1       0.464  62.362 171.132  1.00  0.00     0.039 A
ENDROOT
BRANCH   2  11
ATOM     11  O   UNL     1       1.878  64.685 169.588  1.00  0.00    -0.389 OA
ATOM     12  H   UNL     1       2.006  64.481 170.535  1.00  0.00     0.211 HD
ENDBRANCH   2  11
BRANCH   3  13
ATOM     13  C   UNL     1       2.133  62.656 167.202  1.00  0.00    -0.001 A
ATOM     14  C   UNL     1       1.599  63.139 165.998  1.00  0.00     0.057 A
ATOM     15  C   UNL     1       3.480  62.234 167.213  1.00  0.00     0.012 A
ATOM     16  C   UNL     1       2.395  63.193 164.859  1.00  0.00     0.157 A
ATOM     17  C   UNL     1       4.277  62.297 166.064  1.00  0.00     0.050 A
ATOM     18  C   UNL     1       3.722  62.777 164.888  1.00  0.00     0.157 A
BRANCH  16  19
ATOM     19  O   UNL     1       1.856  63.663 163.695  1.00  0.00    -0.504 OA
ATOM     20  H   UNL     1       1.735  62.866 163.142  1.00  0.00     0.293 HD
ENDBRANCH  16  19
BRANCH  18  21
ATOM     21  O   UNL     1       4.442  62.864 163.729  1.00  0.00    -0.504 OA
ATOM     22  H   UNL     1       5.160  62.208 163.772  1.00  0.00     0.293 HD
ENDBRANCH  18  21
ENDBRANCH   3  13
BRANCH   9  23
ATOM     23  O   UNL     1      -1.149  62.653 172.934  1.00  0.00    -0.507 OA
ATOM     24  H   UNL     1      -1.028  62.730 173.893  1.00  0.00     0.293 HD
ENDBRANCH   9  23
BRANCH   7  25
ATOM     25  O   UNL     1       2.091  59.220 173.339  1.00  0.00    -0.508 OA
ATOM     26  H   UNL     1       2.087  58.426 172.780  1.00  0.00     0.293 HD
ENDBRANCH   7  25
TORSDOF 6
