ROOT
ATOM      1  C   UNL     1       8.139  26.116  57.446  1.00  0.00     0.079 C
ATOM      2  C   UNL     1       7.787  26.233  55.960  1.00  0.00     0.164 C
ATOM      3  C   UNL     1       6.270  26.474  55.825  1.00  0.00     0.232 C
ATOM      4  O   UNL     1       5.562  25.326  56.331  1.00  0.00    -0.482 OA
ATOM      5  C   UNL     1       5.893  24.982  57.616  1.00  0.00     0.131 A
ATOM      6  C   UNL     1       4.944  24.220  58.298  1.00  0.00     0.093 A
ATOM      7  C   UNL     1       5.190  23.826  59.606  1.00  0.00     0.122 A
ATOM      8  C   UNL     1       6.376  24.175  60.238  1.00  0.00     0.092 A
ATOM      9  C   UNL     1       7.331  24.917  59.541  1.00  0.00     0.126 A
ATOM     10  C   UNL     1       7.116  25.322  58.216  1.00  0.00     0.039 A
ENDROOT
BRANCH   2  11
ATOM     11  O   UNL     1       8.207  25.029  55.300  1.00  0.00    -0.389 OA
ATOM     12  H   UNL     1       9.050  25.232  54.849  1.00  0.00     0.211 HD
ENDBRANCH   2  11
BRANCH   3  13
ATOM     13  C   UNL     1       5.730  26.755  54.429  1.00  0.00    -0.001 A
ATOM     14  C   UNL     1       6.271  27.724  53.571  1.00  0.00     0.057 A
ATOM     15  C   UNL     1       4.611  26.019  53.982  1.00  0.00     0.012 A
ATOM     16  C   UNL     1       5.704  27.936  52.319  1.00  0.00     0.157 A
ATOM     17  C   UNL     1       4.050  26.234  52.718  1.00  0.00     0.050 A
ATOM     18  C   UNL     1       4.604  27.199  51.893  1.00  0.00     0.157 A
BRANCH  16  19
ATOM     19  O   UNL     1       6.243  28.887  51.499  1.00  0.00    -0.504 OA
ATOM     20  H   UNL     1       5.501  29.494  51.308  1.00  0.00     0.293 HD
ENDBRANCH  16  19
BRANCH  18  21
ATOM     21  O   UNL     1       4.105  27.461  50.647  1.00  0.00    -0.504 OA
ATOM     22  H   UNL     1       3.455  28.180  50.729  1.00  0.00     0.293 HD
ENDBRANCH  18  21
ENDBRANCH   3  13
BRANCH   9  23
ATOM     23  O   UNL     1       8.469  25.215  60.238  1.00  0.00    -0.507 OA
ATOM     24  H   UNL     1       8.245  25.507  61.135  1.00  0.00     0.293 HD
ENDBRANCH   9  23
BRANCH   7  25
ATOM     25  O   UNL     1       4.233  23.093  60.244  1.00  0.00    -0.508 OA
ATOM     26  H   UNL     1       4.525  22.168  60.280  1.00  0.00     0.293 HD
ENDBRANCH   7  25
TORSDOF 6
