ROOT
ATOM      1  C03 ZEP A 601       1.692  63.885 168.035  1.00  0.00     0.082 A
ATOM      2  C04 ZEP A 601       2.616  62.999 168.596  1.00  0.00     0.022 A
ATOM      3  C05 ZEP A 601       2.307  62.335 169.787  1.00  0.00     0.012 A
ATOM      4  C06 ZEP A 601       1.069  62.535 170.419  1.00  0.00     0.001 A
ATOM      5  C20 ZEP A 601       0.147  63.413 169.829  1.00  0.00     0.012 A
ATOM      6  C21 ZEP A 601       0.447  64.078 168.636  1.00  0.00     0.022 A
ENDROOT
BRANCH   4   7
ATOM      7  C07 ZEP A 601       0.714  61.863 171.667  1.00  0.00     0.081 A
ATOM      8  C10 ZEP A 601       0.913  60.293 173.227  1.00  0.00     0.098 A
ATOM      9  S09 ZEP A 601      -0.368  61.232 173.886  1.00  0.00    -0.126 S
ATOM     10  N19 ZEP A 601       1.386  60.718 172.073  1.00  0.00    -0.241 NA
ATOM     11  C08 ZEP A 601      -0.268  62.290 172.541  1.00  0.00     0.095 A
BRANCH   8  12
ATOM     12  C11 ZEP A 601       1.418  59.079 173.951  1.00  0.00     0.106 C
BRANCH  12  13
ATOM     13  C12 ZEP A 601       0.569  57.856 173.711  1.00  0.00    -0.005 A
ATOM     14  C13 ZEP A 601      -0.431  57.496 174.619  1.00  0.00     0.126 A
ATOM     15  C18 ZEP A 601       0.777  57.045 172.587  1.00  0.00     0.007 A
ATOM     16  C15 ZEP A 601      -1.215  56.363 174.419  1.00  0.00     0.039 A
ATOM     17  C17 ZEP A 601      -0.007  55.907 172.381  1.00  0.00     0.001 A
ATOM     18  C16 ZEP A 601      -1.003  55.566 173.296  1.00  0.00     0.003 A
ATOM     19  F14 ZEP A 601      -0.649  58.246 175.708  1.00  0.00    -0.207 F
ENDBRANCH  12  13
ENDBRANCH   8  12
ENDBRANCH   4   7
BRANCH   1  20
ATOM     20  S02 ZEP A 601       2.075  64.704 166.499  1.00  0.00     0.243 S
ATOM     21  O01 ZEP A 601       2.773  65.931 166.820  1.00  0.00    -0.207 OA
ATOM     22  O27 ZEP A 601       0.861  64.723 165.709  1.00  0.00    -0.207 OA
BRANCH  20  23
ATOM     23  N22 ZEP A 601       3.181  63.639 165.757  1.00  0.00    -0.198 NA
BRANCH  23  24
ATOM     24  C23 ZEP A 601       2.640  62.723 164.722  1.00  0.00     0.099 C
ATOM     25  C24 ZEP A 601       2.148  61.449 165.385  1.00  0.00     0.022 C
ENDBRANCH  23  24
BRANCH  23  26
ATOM     26  C25 ZEP A 601       4.538  64.168 165.475  1.00  0.00     0.099 C
ATOM     27  C26 ZEP A 601       5.511  63.028 165.224  1.00  0.00     0.022 C
ENDBRANCH  23  26
ENDBRANCH  20  23
ENDBRANCH   1  20
TORSDOF 7
