ROOT
ATOM      1  C   UNL     1       6.910  26.485  55.093  1.00  0.00     0.065 C
ATOM      2  C   UNL     1       8.058  26.772  55.726  1.00  0.00     0.208 C
ATOM      3  O   UNL     1       8.411  26.410  57.003  1.00  0.00    -0.463 OA
ATOM      4  C   UNL     1       7.513  25.666  57.725  1.00  0.00     0.141 A
ATOM      5  C   UNL     1       6.277  25.273  57.213  1.00  0.00     0.066 A
ATOM      6  C   UNL     1       5.911  25.669  55.841  1.00  0.00     0.200 C
ATOM      7  O   UNL     1       4.833  25.334  55.362  1.00  0.00    -0.288 OA
ATOM      8  C   UNL     1       5.401  24.514  57.995  1.00  0.00     0.020 A
ATOM      9  C   UNL     1       5.771  24.150  59.291  1.00  0.00     0.047 A
ATOM     10  C   UNL     1       7.007  24.548  59.793  1.00  0.00     0.119 A
ATOM     11  C   UNL     1       7.885  25.304  59.021  1.00  0.00     0.094 A
ENDROOT
BRANCH   1  12
ATOM     12  C   UNL     1       6.684  26.938  53.708  1.00  0.00    -0.011 A
ATOM     13  C   UNL     1       6.233  27.804  51.058  1.00  0.00     0.118 A
ATOM     14  C   UNL     1       6.878  26.591  51.300  1.00  0.00     0.047 A
ATOM     15  C   UNL     1       5.822  28.582  52.140  1.00  0.00     0.047 A
ATOM     16  C   UNL     1       7.102  26.163  52.616  1.00  0.00     0.013 A
ATOM     17  C   UNL     1       6.046  28.157  53.453  1.00  0.00     0.013 A
BRANCH  13  18
ATOM     18  O   UNL     1       5.952  28.335  49.830  1.00  0.00    -0.497 OA
ATOM     19  C   UNL     1       5.184  29.532  49.806  1.00  0.00     0.278 C
ENDBRANCH  13  18
ENDBRANCH   1  12
BRANCH  10  20
ATOM     20  O   UNL     1       7.324  24.170  61.064  1.00  0.00    -0.508 OA
ATOM     21  H   UNL     1       6.769  23.416  61.320  1.00  0.00     0.293 HD
ENDBRANCH  10  20
TORSDOF 3
