ROOT
ATOM      1  C   UNL     1       3.534  21.587  33.295  1.00  0.00     0.065 C
ATOM      2  C   UNL     1       4.194  21.634  34.464  1.00  0.00     0.208 C
ATOM      3  O   UNL     1       5.246  20.840  34.852  1.00  0.00    -0.463 OA
ATOM      4  C   UNL     1       5.694  19.896  33.962  1.00  0.00     0.141 A
ATOM      5  C   UNL     1       5.126  19.722  32.700  1.00  0.00     0.066 A
ATOM      6  C   UNL     1       3.997  20.581  32.297  1.00  0.00     0.200 C
ATOM      7  O   UNL     1       3.481  20.454  31.192  1.00  0.00    -0.288 OA
ATOM      8  C   UNL     1       5.624  18.744  31.834  1.00  0.00     0.020 A
ATOM      9  C   UNL     1       6.693  17.944  32.238  1.00  0.00     0.047 A
ATOM     10  C   UNL     1       7.253  18.125  33.499  1.00  0.00     0.119 A
ATOM     11  C   UNL     1       6.763  19.096  34.369  1.00  0.00     0.094 A
ENDROOT
BRANCH   1  12
ATOM     12  C   UNL     1       2.428  22.521  33.022  1.00  0.00    -0.011 A
ATOM     13  C   UNL     1       0.308  24.308  32.481  1.00  0.00     0.118 A
ATOM     14  C   UNL     1       1.533  24.791  32.942  1.00  0.00     0.047 A
ATOM     15  C   UNL     1       0.145  22.935  32.298  1.00  0.00     0.047 A
ATOM     16  C   UNL     1       2.583  23.903  33.212  1.00  0.00     0.013 A
ATOM     17  C   UNL     1       1.191  22.048  32.568  1.00  0.00     0.013 A
BRANCH  13  18
ATOM     18  O   UNL     1      -0.792  25.062  32.179  1.00  0.00    -0.497 OA
ATOM     19  C   UNL     1      -1.602  24.615  31.099  1.00  0.00     0.278 C
ENDBRANCH  13  18
ENDBRANCH   1  12
BRANCH  10  20
ATOM     20  O   UNL     1       8.295  17.320  33.850  1.00  0.00    -0.508 OA
ATOM     21  H   UNL     1       8.927  17.830  34.382  1.00  0.00     0.293 HD
ENDBRANCH  10  20
TORSDOF 3
