ROOT
ATOM      1  C   UNL     1       0.459  62.692 170.827  1.00  0.00     0.065 C
ATOM      2  C   UNL     1      -0.548  62.957 171.675  1.00  0.00     0.208 C
ATOM      3  O   UNL     1      -0.869  62.268 172.819  1.00  0.00    -0.463 OA
ATOM      4  C   UNL     1      -0.085  61.194 173.157  1.00  0.00     0.141 A
ATOM      5  C   UNL     1       1.007  60.789 172.390  1.00  0.00     0.066 A
ATOM      6  C   UNL     1       1.340  61.537 171.165  1.00  0.00     0.200 C
ATOM      7  O   UNL     1       2.297  61.208 170.473  1.00  0.00    -0.288 OA
ATOM      8  C   UNL     1       1.772  59.686 172.783  1.00  0.00     0.020 A
ATOM      9  C   UNL     1       1.437  58.993 173.948  1.00  0.00     0.047 A
ATOM     10  C   UNL     1       0.345  59.406 174.706  1.00  0.00     0.119 A
ATOM     11  C   UNL     1      -0.423  60.502 174.322  1.00  0.00     0.094 A
ENDROOT
BRANCH   1  12
ATOM     12  C   UNL     1       0.682  63.539 169.642  1.00  0.00    -0.011 A
ATOM     13  C   UNL     1       1.118  65.147 167.362  1.00  0.00     0.118 A
ATOM     14  C   UNL     1       1.834  65.384 168.535  1.00  0.00     0.047 A
ATOM     15  C   UNL     1       0.183  64.113 167.334  1.00  0.00     0.047 A
ATOM     16  C   UNL     1       1.616  64.586 169.666  1.00  0.00     0.013 A
ATOM     17  C   UNL     1      -0.037  63.316 168.462  1.00  0.00     0.013 A
BRANCH  13  18
ATOM     18  O   UNL     1       1.235  65.846 166.192  1.00  0.00    -0.497 OA
ATOM     19  C   UNL     1       1.499  65.093 165.015  1.00  0.00     0.278 C
ENDBRANCH  13  18
ENDBRANCH   1  12
BRANCH  10  20
ATOM     20  O   UNL     1       0.056  58.698 175.834  1.00  0.00    -0.508 OA
ATOM     21  H   UNL     1      -0.105  59.316 176.566  1.00  0.00     0.293 HD
ENDBRANCH  10  20
TORSDOF 3
