ROOT
ATOM      1  C   UNL     1       5.248  32.249  52.667  1.00  0.00    -0.009 C
ATOM      2  C   UNL     1       6.095  33.000  51.632  1.00  0.00     0.004 C
ATOM      3  C   UNL     1       7.173  32.122  51.010  1.00  0.00     0.002 C
ATOM      4  C   UNL     1       6.582  30.855  50.396  1.00  0.00     0.019 C
ATOM      5  C   UNL     1       5.750  30.036  51.409  1.00  0.00     0.059 C
ATOM      6  C   UNL     1       4.676  30.960  52.035  1.00  0.00     0.022 C
ENDROOT
BRANCH   1   7
ATOM      7  C   UNL     1       6.000  31.934  53.979  1.00  0.00     0.009 C
BRANCH   7   8
ATOM      8  C   UNL     1       5.218  32.110  55.289  1.00  0.00     0.062 C
BRANCH   8   9
ATOM      9  C   UNL     1       4.998  33.565  55.716  1.00  0.00     0.246 C
BRANCH   9  10
ATOM     10  O   UNL     1       5.610  33.747  56.988  1.00  0.00    -0.356 OA
ATOM     11  C   UNL     1       4.918  33.053  58.018  1.00  0.00     0.198 C
ENDBRANCH   9  10
BRANCH   9  12
ATOM     12  O   UNL     1       5.586  34.463  54.796  1.00  0.00    -0.368 OA
ATOM     13  H   UNL     1       5.757  33.937  53.997  1.00  0.00     0.213 HD
ENDBRANCH   9  12
ENDBRANCH   8   9
ENDBRANCH   7   8
ENDBRANCH   1   7
BRANCH   5  14
ATOM     14  N   UNL     1       5.224  28.832  50.723  1.00  0.00    -0.273 NA
BRANCH  14  15
ATOM     15  C   UNL     1       6.122  27.678  50.612  1.00  0.00     0.091 C
BRANCH  15  16
ATOM     16  C   UNL     1       6.053  26.682  51.799  1.00  0.00     0.003 C
ATOM     17  C   UNL     1       7.467  26.381  52.339  1.00  0.00     0.005 C
ATOM     18  C   UNL     1       5.120  27.199  52.912  1.00  0.00     0.005 C
ATOM     19  C   UNL     1       7.804  27.222  53.567  1.00  0.00     0.004 C
ATOM     20  C   UNL     1       5.445  26.560  54.258  1.00  0.00     0.004 C
ATOM     21  C   UNL     1       6.863  26.922  54.760  1.00  0.00    -0.008 C
BRANCH  21  22
ATOM     22  C   UNL     1       7.431  25.833  55.729  1.00  0.00    -0.008 C
ATOM     23  C   UNL     1       7.907  26.456  57.065  1.00  0.00     0.005 C
ATOM     24  C   UNL     1       6.447  24.666  55.988  1.00  0.00     0.005 C
ATOM     25  C   UNL     1       7.794  25.491  58.242  1.00  0.00     0.019 C
ATOM     26  C   UNL     1       5.533  24.931  57.181  1.00  0.00     0.019 C
ATOM     27  C   UNL     1       6.319  25.112  58.500  1.00  0.00     0.056 C
BRANCH  27  28
ATOM     28  N   UNL     1       6.239  24.004  59.474  1.00  0.00    -0.306 NA
ATOM     29  C   UNL     1       7.309  24.078  60.471  1.00  0.00     0.105 C
ATOM     30  C   UNL     1       4.943  23.866  60.140  1.00  0.00     0.105 C
ENDBRANCH  27  28
ENDBRANCH  21  22
ENDBRANCH  15  16
ENDBRANCH  14  15
BRANCH  14  31
ATOM     31  C   UNL     1       4.411  29.099  49.514  1.00  0.00     0.222 C
ATOM     32  O   UNL     1       3.187  28.365  49.346  1.00  0.00    -0.349 OA
ATOM     33  C   UNL     1       3.044  29.777  49.499  1.00  0.00     0.110 C
ATOM     34  C   UNL     1       2.630  30.500  48.244  1.00  0.00     0.040 C
ATOM     35  C   UNL     1       2.294  30.170  50.742  1.00  0.00     0.040 C
ATOM     36  C   UNL     1       1.118  30.431  48.040  1.00  0.00     0.003 C
ATOM     37  C   UNL     1       0.783  30.108  50.517  1.00  0.00     0.003 C
ATOM     38  C   UNL     1       0.365  30.904  49.282  1.00  0.00     0.000 C
ENDBRANCH  14  31
ENDBRANCH   5  14
TORSDOF 11
