ROOT
ATOM      1  O   UNL     1       1.613  65.359 165.700  1.00  0.00    -0.462 OA
ENDROOT
BRANCH   1   2
ATOM      2  C   UNL     1       1.764  64.443 166.703  1.00  0.00     0.130 A
ATOM      3  C   UNL     1       0.809  62.022 171.104  1.00  0.00     0.065 C
ATOM      4  C   UNL     1      -0.060  63.020 170.881  1.00  0.00     0.208 C
ATOM      5  C   UNL     1       1.845  61.793 170.059  1.00  0.00     0.204 C
ATOM      6  O   UNL     1      -0.086  63.867 169.799  1.00  0.00    -0.463 OA
ATOM      7  C   UNL     1       1.837  62.696 168.897  1.00  0.00     0.107 A
ATOM      8  O   UNL     1       2.688  60.904 170.128  1.00  0.00    -0.288 OA
ATOM      9  C   UNL     1       0.866  63.689 168.829  1.00  0.00     0.145 A
ATOM     10  C   UNL     1       2.774  62.580 167.867  1.00  0.00     0.134 A
ATOM     11  C   UNL     1       0.830  64.560 167.738  1.00  0.00     0.094 A
ATOM     12  C   UNL     1       2.743  63.451 166.774  1.00  0.00     0.093 A
BRANCH   3  13
ATOM     13  C   UNL     1       0.705  61.184 172.313  1.00  0.00    -0.011 A
ATOM     14  C   UNL     1       1.524  60.056 172.471  1.00  0.00     0.013 A
ATOM     15  C   UNL     1       1.429  59.255 173.614  1.00  0.00     0.047 A
ATOM     16  C   UNL     1       0.511  59.582 174.604  1.00  0.00     0.115 A
ATOM     17  C   UNL     1      -0.210  61.498 173.332  1.00  0.00     0.013 A
ATOM     18  C   UNL     1      -0.308  60.696 174.472  1.00  0.00     0.047 A
BRANCH  16  19
ATOM     19  O   UNL     1       0.385  58.831 175.734  1.00  0.00    -0.508 OA
ATOM     20  H   UNL     1       1.236  58.403 175.919  1.00  0.00     0.293 HD
ENDBRANCH  16  19
ENDBRANCH   3  13
BRANCH  10  21
ATOM     21  O   UNL     1       3.760  61.629 167.861  1.00  0.00    -0.507 OA
ATOM     22  H   UNL     1       3.688  61.116 167.023  1.00  0.00     0.293 HD
ENDBRANCH  10  21
ENDBRANCH   1   2
BRANCH   1  23
ATOM     23  C   UNL     1       0.925  66.585 165.989  1.00  0.00     0.339 C
ATOM     24  C   UNL     1       1.960  67.724 165.845  1.00  0.00     0.214 C
ATOM     25  O   UNL     1      -0.243  66.771 165.186  1.00  0.00    -0.332 OA
ATOM     26  C   UNL     1       1.244  69.000 165.430  1.00  0.00     0.180 C
ATOM     27  C   UNL     1      -0.045  67.404 163.912  1.00  0.00     0.179 C
ATOM     28  C   UNL     1       0.572  68.813 164.066  1.00  0.00     0.177 C
BRANCH  24  29
ATOM     29  O   UNL     1       2.672  67.961 167.072  1.00  0.00    -0.384 OA
ATOM     30  H   UNL     1       2.121  67.600 167.793  1.00  0.00     0.211 HD
ENDBRANCH  24  29
BRANCH  26  31
ATOM     31  O   UNL     1       2.176  70.091 165.352  1.00  0.00    -0.387 OA
ATOM     32  H   UNL     1       2.466  70.240 166.275  1.00  0.00     0.211 HD
ENDBRANCH  26  31
BRANCH  27  33
ATOM     33  C   UNL     1       0.746  66.491 162.957  1.00  0.00     0.191 C
BRANCH  33  34
ATOM     34  O   UNL     1       1.539  67.253 162.056  1.00  0.00    -0.394 OA
ATOM     35  H   UNL     1       2.440  67.286 162.420  1.00  0.00     0.210 HD
ENDBRANCH  33  34
ENDBRANCH  27  33
BRANCH  28  36
ATOM     36  O   UNL     1      -0.454  69.819 163.961  1.00  0.00    -0.387 OA
ATOM     37  H   UNL     1       0.007  70.674 164.063  1.00  0.00     0.211 HD
ENDBRANCH  28  36
ENDBRANCH   1  23
TORSDOF 10
