ROOT
ATOM      1  O   UNL     1       4.286  27.842  50.194  1.00  0.00    -0.462 OA
ENDROOT
BRANCH   1   2
ATOM      2  C   UNL     1       5.008  27.350  51.246  1.00  0.00     0.130 A
ATOM      3  C   UNL     1       6.028  25.909  56.044  1.00  0.00     0.065 C
ATOM      4  C   UNL     1       4.771  26.363  55.913  1.00  0.00     0.208 C
ATOM      5  C   UNL     1       6.863  25.889  54.812  1.00  0.00     0.204 C
ATOM      6  O   UNL     1       4.178  26.827  54.763  1.00  0.00    -0.463 OA
ATOM      7  C   UNL     1       6.245  26.390  53.573  1.00  0.00     0.107 A
ATOM      8  O   UNL     1       8.021  25.482  54.787  1.00  0.00    -0.288 OA
ATOM      9  C   UNL     1       4.928  26.835  53.616  1.00  0.00     0.145 A
ATOM     10  C   UNL     1       6.944  26.430  52.364  1.00  0.00     0.134 A
ATOM     11  C   UNL     1       4.312  27.314  52.459  1.00  0.00     0.094 A
ATOM     12  C   UNL     1       6.332  26.911  51.204  1.00  0.00     0.093 A
BRANCH   3  13
ATOM     13  C   UNL     1       6.526  25.430  57.346  1.00  0.00    -0.011 A
ATOM     14  C   UNL     1       7.699  25.964  57.901  1.00  0.00     0.013 A
ATOM     15  C   UNL     1       8.179  25.512  59.135  1.00  0.00     0.047 A
ATOM     16  C   UNL     1       7.485  24.521  59.818  1.00  0.00     0.115 A
ATOM     17  C   UNL     1       5.839  24.434  58.060  1.00  0.00     0.013 A
ATOM     18  C   UNL     1       6.320  23.980  59.291  1.00  0.00     0.047 A
BRANCH  16  19
ATOM     19  O   UNL     1       7.915  24.051  61.022  1.00  0.00    -0.508 OA
ATOM     20  H   UNL     1       7.290  24.336  61.708  1.00  0.00     0.293 HD
ENDBRANCH  16  19
ENDBRANCH   3  13
BRANCH  10  21
ATOM     21  O   UNL     1       8.242  26.011  52.241  1.00  0.00    -0.507 OA
ATOM     22  H   UNL     1       8.781  26.770  51.918  1.00  0.00     0.293 HD
ENDBRANCH  10  21
ENDBRANCH   1   2
BRANCH   1  23
ATOM     23  C   UNL     1       4.075  29.260  50.112  1.00  0.00     0.339 C
ATOM     24  C   UNL     1       3.543  29.552  48.691  1.00  0.00     0.214 C
ATOM     25  O   UNL     1       3.227  29.757  51.151  1.00  0.00    -0.332 OA
ATOM     26  C   UNL     1       2.661  30.789  48.732  1.00  0.00     0.180 C
ATOM     27  C   UNL     1       1.815  29.722  50.891  1.00  0.00     0.179 C
ATOM     28  C   UNL     1       1.447  30.546  49.635  1.00  0.00     0.177 C
BRANCH  24  29
ATOM     29  O   UNL     1       4.613  29.767  47.752  1.00  0.00    -0.384 OA
ATOM     30  H   UNL     1       4.413  29.224  46.966  1.00  0.00     0.211 HD
ENDBRANCH  24  29
BRANCH  26  31
ATOM     31  O   UNL     1       2.206  31.120  47.410  1.00  0.00    -0.387 OA
ATOM     32  H   UNL     1       2.575  32.009  47.232  1.00  0.00     0.211 HD
ENDBRANCH  26  31
BRANCH  27  33
ATOM     33  C   UNL     1       1.296  28.274  50.846  1.00  0.00     0.191 C
BRANCH  33  34
ATOM     34  O   UNL     1       1.125  27.830  49.506  1.00  0.00    -0.394 OA
ATOM     35  H   UNL     1       0.170  27.727  49.354  1.00  0.00     0.210 HD
ENDBRANCH  33  34
ENDBRANCH  27  33
BRANCH  28  36
ATOM     36  O   UNL     1       0.943  31.840  50.019  1.00  0.00    -0.387 OA
ATOM     37  H   UNL     1       0.095  31.941  49.545  1.00  0.00     0.211 HD
ENDBRANCH  28  36
ENDBRANCH   1  23
TORSDOF 10
