ROOT
ATOM      1  O   UNL     1       7.763  19.122  32.591  1.00  0.00    -0.462 OA
ENDROOT
BRANCH   1   2
ATOM      2  C   UNL     1       6.645  19.872  32.831  1.00  0.00     0.130 A
ATOM      3  C   UNL     1       2.298  22.369  31.831  1.00  0.00     0.065 C
ATOM      4  C   UNL     1       2.808  21.790  30.733  1.00  0.00     0.208 C
ATOM      5  C   UNL     1       3.050  22.172  33.100  1.00  0.00     0.204 C
ATOM      6  O   UNL     1       3.961  21.047  30.652  1.00  0.00    -0.463 OA
ATOM      7  C   UNL     1       4.292  21.386  33.030  1.00  0.00     0.107 A
ATOM      8  O   UNL     1       2.686  22.631  34.179  1.00  0.00    -0.288 OA
ATOM      9  C   UNL     1       4.683  20.863  31.802  1.00  0.00     0.145 A
ATOM     10  C   UNL     1       5.083  21.154  34.159  1.00  0.00     0.134 A
ATOM     11  C   UNL     1       5.855  20.111  31.702  1.00  0.00     0.094 A
ATOM     12  C   UNL     1       6.258  20.403  34.062  1.00  0.00     0.093 A
BRANCH   3  13
ATOM     13  C   UNL     1       1.037  23.131  31.767  1.00  0.00    -0.011 A
ATOM     14  C   UNL     1      -0.174  22.539  32.159  1.00  0.00     0.013 A
ATOM     15  C   UNL     1      -1.375  23.254  32.099  1.00  0.00     0.047 A
ATOM     16  C   UNL     1      -1.367  24.567  31.644  1.00  0.00     0.115 A
ATOM     17  C   UNL     1       1.019  24.462  31.318  1.00  0.00     0.013 A
ATOM     18  C   UNL     1      -0.181  25.175  31.255  1.00  0.00     0.047 A
BRANCH  16  19
ATOM     19  O   UNL     1      -2.512  25.301  31.569  1.00  0.00    -0.508 OA
ATOM     20  H   UNL     1      -3.261  24.733  31.814  1.00  0.00     0.293 HD
ENDBRANCH  16  19
ENDBRANCH   3  13
BRANCH  10  21
ATOM     21  O   UNL     1       4.766  21.635  35.401  1.00  0.00    -0.507 OA
ATOM     22  H   UNL     1       3.792  21.780  35.436  1.00  0.00     0.293 HD
ENDBRANCH  10  21
ENDBRANCH   1   2
BRANCH   1  23
ATOM     23  C   UNL     1       8.182  18.180  33.590  1.00  0.00     0.339 C
ATOM     24  C   UNL     1       8.039  16.773  32.968  1.00  0.00     0.214 C
ATOM     25  O   UNL     1       9.494  18.449  34.094  1.00  0.00    -0.332 OA
ATOM     26  C   UNL     1       9.061  15.841  33.598  1.00  0.00     0.180 C
ATOM     27  C   UNL     1      10.587  17.873  33.362  1.00  0.00     0.179 C
ATOM     28  C   UNL     1      10.483  16.332  33.302  1.00  0.00     0.177 C
BRANCH  24  29
ATOM     29  O   UNL     1       6.721  16.230  33.166  1.00  0.00    -0.384 OA
ATOM     30  H   UNL     1       6.088  16.945  32.964  1.00  0.00     0.211 HD
ENDBRANCH  24  29
BRANCH  26  31
ATOM     31  O   UNL     1       8.905  14.509  33.083  1.00  0.00    -0.387 OA
ATOM     32  H   UNL     1       8.500  14.001  33.815  1.00  0.00     0.211 HD
ENDBRANCH  26  31
BRANCH  27  33
ATOM     33  C   UNL     1      10.734  18.530  31.977  1.00  0.00     0.191 C
BRANCH  33  34
ATOM     34  O   UNL     1      11.862  19.394  31.935  1.00  0.00    -0.394 OA
ATOM     35  H   UNL     1      12.637  18.848  31.719  1.00  0.00     0.210 HD
ENDBRANCH  33  34
ENDBRANCH  27  33
BRANCH  28  36
ATOM     36  O   UNL     1      11.347  15.736  34.288  1.00  0.00    -0.387 OA
ATOM     37  H   UNL     1      10.814  15.680  35.104  1.00  0.00     0.211 HD
ENDBRANCH  28  36
ENDBRANCH   1  23
TORSDOF 10
