ROOT
ATOM      1  C   UNL     1       1.433  62.758 169.189  1.00  0.00     0.180 C
ATOM      2  C   UNL     1       2.481  62.169 168.585  1.00  0.00     0.208 C
ATOM      3  C   UNL     1       2.886  62.647 167.243  1.00  0.00     0.238 C
ATOM      4  O   UNL     1       3.841  62.137 166.662  1.00  0.00    -0.285 OA
ATOM      5  C   UNL     1       2.108  63.736 166.650  1.00  0.00     0.111 A
ATOM      6  C   UNL     1       2.405  64.250 165.385  1.00  0.00     0.134 A
ATOM      7  C   UNL     1       1.639  65.285 164.857  1.00  0.00     0.093 A
ATOM      8  C   UNL     1       0.580  65.801 165.597  1.00  0.00     0.123 A
ATOM      9  C   UNL     1       0.274  65.299 166.860  1.00  0.00     0.094 A
ATOM     10  C   UNL     1       1.046  64.261 167.385  1.00  0.00     0.146 A
ATOM     11  O   UNL     1       0.705  63.805 168.633  1.00  0.00    -0.452 OA
ENDROOT
BRANCH   1  12
ATOM     12  C   UNL     1       0.951  62.372 170.533  1.00  0.00     0.025 A
ATOM     13  C   UNL     1       0.988  60.882 172.467  1.00  0.00     0.161 A
ATOM     14  C   UNL     1      -0.035  61.642 173.049  1.00  0.00     0.157 A
ATOM     15  C   UNL     1       1.468  61.251 171.205  1.00  0.00     0.062 A
ATOM     16  C   UNL     1      -0.566  62.751 172.395  1.00  0.00     0.051 A
ATOM     17  C   UNL     1      -0.075  63.112 171.140  1.00  0.00     0.016 A
BRANCH  13  18
ATOM     18  O   UNL     1       1.434  59.809 173.193  1.00  0.00    -0.493 OA
ATOM     19  C   UNL     1       1.431  58.540 172.554  1.00  0.00     0.278 C
ENDBRANCH  13  18
BRANCH  14  20
ATOM     20  O   UNL     1      -0.515  61.284 174.281  1.00  0.00    -0.504 OA
ATOM     21  H   UNL     1       0.171  60.792 174.759  1.00  0.00     0.293 HD
ENDBRANCH  14  20
ENDBRANCH   1  12
BRANCH   2  22
ATOM     22  O   UNL     1       3.227  61.146 169.140  1.00  0.00    -0.502 OA
ATOM     23  H   UNL     1       3.540  60.610 168.382  1.00  0.00     0.293 HD
ENDBRANCH   2  22
BRANCH   6  24
ATOM     24  O   UNL     1       3.434  63.782 164.613  1.00  0.00    -0.507 OA
ATOM     25  H   UNL     1       3.967  63.154 165.148  1.00  0.00     0.293 HD
ENDBRANCH   6  24
BRANCH   8  26
ATOM     26  O   UNL     1      -0.147  66.814 165.044  1.00  0.00    -0.508 OA
ATOM     27  H   UNL     1       0.454  67.512 164.734  1.00  0.00     0.293 HD
ENDBRANCH   8  26
TORSDOF 6
