ROOT
ATOM      1  C   UNL     1       2.799  21.495  32.225  1.00  0.00     0.180 C
ATOM      2  C   UNL     1       3.195  20.727  31.194  1.00  0.00     0.208 C
ATOM      3  C   UNL     1       4.405  19.889  31.360  1.00  0.00     0.238 C
ATOM      4  O   UNL     1       4.795  19.170  30.443  1.00  0.00    -0.285 OA
ATOM      5  C   UNL     1       5.103  19.956  32.645  1.00  0.00     0.111 A
ATOM      6  C   UNL     1       6.259  19.211  32.894  1.00  0.00     0.134 A
ATOM      7  C   UNL     1       6.893  19.305  34.130  1.00  0.00     0.093 A
ATOM      8  C   UNL     1       6.369  20.143  35.109  1.00  0.00     0.123 A
ATOM      9  C   UNL     1       5.216  20.890  34.873  1.00  0.00     0.094 A
ATOM     10  C   UNL     1       4.584  20.792  33.632  1.00  0.00     0.146 A
ATOM     11  O   UNL     1       3.452  21.546  33.452  1.00  0.00    -0.452 OA
ENDROOT
BRANCH   1  12
ATOM     12  C   UNL     1       1.599  22.360  32.177  1.00  0.00     0.025 A
ATOM     13  C   UNL     1       0.562  24.570  32.151  1.00  0.00     0.161 A
ATOM     14  C   UNL     1      -0.698  23.958  32.147  1.00  0.00     0.157 A
ATOM     15  C   UNL     1       1.704  23.762  32.174  1.00  0.00     0.062 A
ATOM     16  C   UNL     1      -0.823  22.570  32.158  1.00  0.00     0.051 A
ATOM     17  C   UNL     1       0.324  21.776  32.175  1.00  0.00     0.016 A
BRANCH  13  18
ATOM     18  O   UNL     1       0.569  25.940  32.145  1.00  0.00    -0.493 OA
ATOM     19  C   UNL     1       1.096  26.596  33.290  1.00  0.00     0.278 C
ENDBRANCH  13  18
BRANCH  14  20
ATOM     20  O   UNL     1      -1.823  24.741  32.130  1.00  0.00    -0.504 OA
ATOM     21  H   UNL     1      -2.144  24.817  31.218  1.00  0.00     0.293 HD
ENDBRANCH  14  20
ENDBRANCH   1  12
BRANCH   2  22
ATOM     22  O   UNL     1       2.538  20.650  29.980  1.00  0.00    -0.502 OA
ATOM     23  H   UNL     1       1.695  21.132  30.109  1.00  0.00     0.293 HD
ENDBRANCH   2  22
BRANCH   6  24
ATOM     24  O   UNL     1       6.819  18.371  31.971  1.00  0.00    -0.507 OA
ATOM     25  H   UNL     1       6.386  18.525  31.102  1.00  0.00     0.293 HD
ENDBRANCH   6  24
BRANCH   8  26
ATOM     26  O   UNL     1       7.021  20.208  36.304  1.00  0.00    -0.508 OA
ATOM     27  H   UNL     1       6.602  20.881  36.866  1.00  0.00     0.293 HD
ENDBRANCH   8  26
TORSDOF 6
