ROOT
ATOM      1  C   UNL     1       6.289  25.945  55.779  1.00  0.00     0.180 C
ATOM      2  C   UNL     1       7.456  26.402  56.269  1.00  0.00     0.208 C
ATOM      3  C   UNL     1       7.825  26.054  57.660  1.00  0.00     0.238 C
ATOM      4  O   UNL     1       8.885  26.448  58.141  1.00  0.00    -0.285 OA
ATOM      5  C   UNL     1       6.883  25.235  58.424  1.00  0.00     0.111 A
ATOM      6  C   UNL     1       7.136  24.863  59.748  1.00  0.00     0.134 A
ATOM      7  C   UNL     1       6.214  24.083  60.439  1.00  0.00     0.093 A
ATOM      8  C   UNL     1       5.043  23.681  59.805  1.00  0.00     0.123 A
ATOM      9  C   UNL     1       4.780  24.043  58.485  1.00  0.00     0.094 A
ATOM     10  C   UNL     1       5.709  24.825  57.796  1.00  0.00     0.146 A
ATOM     11  O   UNL     1       5.403  25.152  56.500  1.00  0.00    -0.452 OA
ENDROOT
BRANCH   1  12
ATOM     12  C   UNL     1       5.827  26.218  54.401  1.00  0.00     0.025 A
ATOM     13  C   UNL     1       6.287  26.745  52.061  1.00  0.00     0.161 A
ATOM     14  C   UNL     1       4.908  26.790  51.820  1.00  0.00     0.157 A
ATOM     15  C   UNL     1       6.736  26.466  53.356  1.00  0.00     0.062 A
ATOM     16  C   UNL     1       3.991  26.555  52.842  1.00  0.00     0.051 A
ATOM     17  C   UNL     1       4.453  26.272  54.128  1.00  0.00     0.016 A
BRANCH  13  18
ATOM     18  O   UNL     1       7.099  26.996  50.986  1.00  0.00    -0.493 OA
ATOM     19  C   UNL     1       7.463  25.891  50.170  1.00  0.00     0.278 C
ENDBRANCH  13  18
BRANCH  14  20
ATOM     20  O   UNL     1       4.459  27.068  50.555  1.00  0.00    -0.504 OA
ATOM     21  H   UNL     1       4.401  26.243  50.049  1.00  0.00     0.293 HD
ENDBRANCH  14  20
ENDBRANCH   1  12
BRANCH   2  22
ATOM     22  O   UNL     1       8.356  27.169  55.552  1.00  0.00    -0.502 OA
ATOM     23  H   UNL     1       8.117  28.099  55.744  1.00  0.00     0.293 HD
ENDBRANCH   2  22
BRANCH   6  24
ATOM     24  O   UNL     1       8.269  25.230  60.422  1.00  0.00    -0.507 OA
ATOM     25  H   UNL     1       8.157  25.004  61.371  1.00  0.00     0.293 HD
ENDBRANCH   6  24
BRANCH   8  26
ATOM     26  O   UNL     1       4.165  22.920  60.518  1.00  0.00    -0.508 OA
ATOM     27  H   UNL     1       4.243  23.133  61.462  1.00  0.00     0.293 HD
ENDBRANCH   8  26
TORSDOF 6
