ROOT
ATOM      1  C   UNL     1       6.210  19.451  33.714  1.00  0.00     0.047 A
ATOM      2  C   UNL     1       5.496  20.474  34.357  1.00  0.00     0.016 A
ATOM      3  C   UNL     1       4.357  21.004  33.723  1.00  0.00     0.021 A
ATOM      4  C   UNL     1       3.984  20.492  32.487  1.00  0.00     0.138 A
ATOM      5  C   UNL     1       4.668  19.478  31.822  1.00  0.00     0.093 A
ATOM      6  C   UNL     1       5.793  18.972  32.472  1.00  0.00     0.119 A
ATOM      7  O   UNL     1       2.867  21.123  32.034  1.00  0.00    -0.456 OA
ATOM      8  C   UNL     1       2.506  22.050  32.972  1.00  0.00     0.135 A
ATOM      9  C   UNL     1       3.398  22.007  34.028  1.00  0.00     0.059 A
ENDROOT
BRANCH   6  10
ATOM     10  O   UNL     1       6.481  17.976  31.839  1.00  0.00    -0.508 OA
ATOM     11  H   UNL     1       5.947  17.647  31.097  1.00  0.00     0.293 HD
ENDBRANCH   6  10
BRANCH   8  12
ATOM     12  C   UNL     1       1.314  22.843  32.670  1.00  0.00     0.025 A
ATOM     13  C   UNL     1       1.393  24.242  32.575  1.00  0.00     0.058 A
ATOM     14  C   UNL     1       0.067  22.227  32.466  1.00  0.00     0.058 A
ATOM     15  C   UNL     1       0.252  24.992  32.285  1.00  0.00     0.120 A
ATOM     16  C   UNL     1      -1.060  22.995  32.177  1.00  0.00     0.120 A
ATOM     17  C   UNL     1      -0.976  24.377  32.086  1.00  0.00     0.092 A
BRANCH  15  18
ATOM     18  O   UNL     1       0.303  26.353  32.189  1.00  0.00    -0.508 OA
ATOM     19  H   UNL     1       1.131  26.668  32.586  1.00  0.00     0.293 HD
ENDBRANCH  15  18
BRANCH  16  20
ATOM     20  O   UNL     1      -2.279  22.416  31.978  1.00  0.00    -0.508 OA
ATOM     21  H   UNL     1      -2.284  21.544  32.406  1.00  0.00     0.293 HD
ENDBRANCH  16  20
ENDBRANCH   8  12
TORSDOF 4
