ROOT
ATOM      1  C   UNL     1       5.907  28.423  51.633  1.00  0.00    -0.002 A
ATOM      2  C   UNL     1       4.828  27.524  51.601  1.00  0.00     0.122 A
ATOM      3  C   UNL     1       4.546  26.655  52.660  1.00  0.00     0.094 A
ATOM      4  C   UNL     1       5.403  26.729  53.755  1.00  0.00     0.138 A
ATOM      5  C   UNL     1       6.486  27.590  53.844  1.00  0.00     0.021 A
ATOM      6  C   UNL     1       6.750  28.453  52.767  1.00  0.00     0.020 A
ATOM      7  C   UNL     1       7.078  27.332  55.110  1.00  0.00     0.059 A
ATOM      8  C   UNL     1       6.328  26.340  55.715  1.00  0.00     0.135 A
ATOM      9  O   UNL     1       5.306  25.974  54.882  1.00  0.00    -0.456 OA
ENDROOT
BRANCH   1  10
ATOM     10  C   UNL     1       6.210  29.338  50.465  1.00  0.00     0.066 C
BRANCH  10  11
ATOM     11  C   UNL     1       6.732  30.680  50.910  1.00  0.00    -0.023 C
ATOM     12  C   UNL     1       6.045  31.827  51.084  1.00  0.00    -0.080 C
ATOM     13  C   UNL     1       6.747  33.076  51.550  1.00  0.00     0.039 C
ATOM     14  C   UNL     1       4.574  32.005  50.835  1.00  0.00     0.039 C
ENDBRANCH  10  11
ENDBRANCH   1  10
BRANCH   2  15
ATOM     15  O   UNL     1       4.022  27.506  50.494  1.00  0.00    -0.508 OA
ATOM     16  H   UNL     1       3.634  26.620  50.403  1.00  0.00     0.293 HD
ENDBRANCH   2  15
BRANCH   8  17
ATOM     17  C   UNL     1       6.401  25.638  56.995  1.00  0.00     0.025 A
ATOM     18  C   UNL     1       7.530  25.776  57.822  1.00  0.00     0.058 A
ATOM     19  C   UNL     1       5.353  24.813  57.434  1.00  0.00     0.058 A
ATOM     20  C   UNL     1       7.593  25.104  59.042  1.00  0.00     0.120 A
ATOM     21  C   UNL     1       5.436  24.150  58.656  1.00  0.00     0.120 A
ATOM     22  C   UNL     1       6.552  24.288  59.469  1.00  0.00     0.092 A
BRANCH  20  23
ATOM     23  O   UNL     1       8.678  25.220  59.863  1.00  0.00    -0.508 OA
ATOM     24  H   UNL     1       8.400  25.048  60.778  1.00  0.00     0.293 HD
ENDBRANCH  20  23
BRANCH  21  25
ATOM     25  O   UNL     1       4.384  23.362  59.024  1.00  0.00    -0.508 OA
ATOM     26  H   UNL     1       4.730  22.509  59.333  1.00  0.00     0.293 HD
ENDBRANCH  21  25
ENDBRANCH   8  17
TORSDOF 6
