ROOT
ATOM      1  C   UNL     1      -0.466  60.892 174.217  1.00  0.00     0.047 A
ATOM      2  C   UNL     1      -0.722  62.001 173.397  1.00  0.00     0.016 A
ATOM      3  C   UNL     1       0.051  62.175 172.235  1.00  0.00     0.021 A
ATOM      4  C   UNL     1       1.037  61.241 171.945  1.00  0.00     0.138 A
ATOM      5  C   UNL     1       1.318  60.130 172.735  1.00  0.00     0.093 A
ATOM      6  C   UNL     1       0.537  59.982 173.881  1.00  0.00     0.119 A
ATOM      7  O   UNL     1       1.675  61.572 170.790  1.00  0.00    -0.456 OA
ATOM      8  C   UNL     1       1.109  62.726 170.320  1.00  0.00     0.135 A
ATOM      9  C   UNL     1       0.104  63.128 171.182  1.00  0.00     0.059 A
ENDROOT
BRANCH   6  10
ATOM     10  O   UNL     1       0.794  58.899 174.673  1.00  0.00    -0.508 OA
ATOM     11  H   UNL     1       0.002  58.697 175.196  1.00  0.00     0.293 HD
ENDBRANCH   6  10
BRANCH   8  12
ATOM     12  C   UNL     1       1.660  63.254 169.072  1.00  0.00     0.025 A
ATOM     13  C   UNL     1       2.487  62.456 168.264  1.00  0.00     0.058 A
ATOM     14  C   UNL     1       1.375  64.564 168.653  1.00  0.00     0.058 A
ATOM     15  C   UNL     1       3.009  62.965 167.075  1.00  0.00     0.120 A
ATOM     16  C   UNL     1       1.906  65.053 167.459  1.00  0.00     0.120 A
ATOM     17  C   UNL     1       2.724  64.262 166.666  1.00  0.00     0.092 A
BRANCH  15  18
ATOM     18  O   UNL     1       3.816  62.211 166.273  1.00  0.00    -0.508 OA
ATOM     19  H   UNL     1       4.743  62.391 166.496  1.00  0.00     0.293 HD
ENDBRANCH  15  18
BRANCH  16  20
ATOM     20  O   UNL     1       1.642  66.322 167.035  1.00  0.00    -0.508 OA
ATOM     21  H   UNL     1       1.047  66.748 167.675  1.00  0.00     0.293 HD
ENDBRANCH  16  20
ENDBRANCH   8  12
TORSDOF 4
