ROOT
ATOM      1  C   UNL     1       6.463  24.215  60.677  1.00  0.00     0.047 A
ATOM      2  C   UNL     1       7.266  24.911  59.761  1.00  0.00     0.016 A
ATOM      3  C   UNL     1       6.800  25.075  58.444  1.00  0.00     0.021 A
ATOM      4  C   UNL     1       5.562  24.544  58.104  1.00  0.00     0.138 A
ATOM      5  C   UNL     1       4.741  23.849  58.987  1.00  0.00     0.093 A
ATOM      6  C   UNL     1       5.227  23.700  60.285  1.00  0.00     0.119 A
ATOM      7  O   UNL     1       5.282  24.801  56.798  1.00  0.00    -0.456 OA
ATOM      8  C   UNL     1       6.336  25.502  56.278  1.00  0.00     0.135 A
ATOM      9  C   UNL     1       7.290  25.692  57.261  1.00  0.00     0.059 A
ENDROOT
BRANCH   6  10
ATOM     10  O   UNL     1       4.438  23.021  61.170  1.00  0.00    -0.508 OA
ATOM     11  H   UNL     1       3.797  22.486  60.675  1.00  0.00     0.293 HD
ENDBRANCH   6  10
BRANCH   8  12
ATOM     12  C   UNL     1       6.227  25.881  54.869  1.00  0.00     0.025 A
ATOM     13  C   UNL     1       5.011  26.354  54.349  1.00  0.00     0.058 A
ATOM     14  C   UNL     1       7.332  25.782  54.006  1.00  0.00     0.058 A
ATOM     15  C   UNL     1       4.915  26.714  53.005  1.00  0.00     0.120 A
ATOM     16  C   UNL     1       7.214  26.148  52.666  1.00  0.00     0.120 A
ATOM     17  C   UNL     1       6.010  26.614  52.158  1.00  0.00     0.092 A
BRANCH  15  18
ATOM     18  O   UNL     1       3.744  27.176  52.476  1.00  0.00    -0.508 OA
ATOM     19  H   UNL     1       3.044  26.524  52.637  1.00  0.00     0.293 HD
ENDBRANCH  15  18
BRANCH  16  20
ATOM     20  O   UNL     1       8.274  26.059  51.813  1.00  0.00    -0.508 OA
ATOM     21  H   UNL     1       8.840  25.321  52.093  1.00  0.00     0.293 HD
ENDBRANCH  16  20
ENDBRANCH   8  12
TORSDOF 4
