ROOT
ATOM      1  C   UNL     1       0.310  60.999 173.257  1.00  0.00    -0.002 A
ATOM      2  C   UNL     1      -0.546  62.086 173.017  1.00  0.00     0.122 A
ATOM      3  C   UNL     1      -0.427  62.897 171.885  1.00  0.00     0.094 A
ATOM      4  C   UNL     1       0.598  62.567 171.003  1.00  0.00     0.138 A
ATOM      5  C   UNL     1       1.478  61.511 171.185  1.00  0.00     0.021 A
ATOM      6  C   UNL     1       1.338  60.710 172.332  1.00  0.00     0.020 A
ATOM      7  C   UNL     1       2.350  61.540 170.064  1.00  0.00     0.059 A
ATOM      8  C   UNL     1       1.956  62.601 169.269  1.00  0.00     0.135 A
ATOM      9  O   UNL     1       0.884  63.225 169.847  1.00  0.00    -0.456 OA
ENDROOT
BRANCH   1  10
ATOM     10  C   UNL     1       0.180  60.147 174.503  1.00  0.00     0.066 C
BRANCH  10  11
ATOM     11  C   UNL     1      -0.756  58.984 174.306  1.00  0.00    -0.023 C
ATOM     12  C   UNL     1      -0.463  57.737 173.885  1.00  0.00    -0.080 C
ATOM     13  C   UNL     1      -1.545  56.696 173.761  1.00  0.00     0.039 C
ATOM     14  C   UNL     1       0.904  57.253 173.491  1.00  0.00     0.039 C
ENDBRANCH  10  11
ENDBRANCH   1  10
BRANCH   2  15
ATOM     15  O   UNL     1      -1.536  62.353 173.926  1.00  0.00    -0.508 OA
ATOM     16  H   UNL     1      -2.151  62.999 173.539  1.00  0.00     0.293 HD
ENDBRANCH   2  15
BRANCH   8  17
ATOM     17  C   UNL     1       2.426  63.162 168.004  1.00  0.00     0.025 A
ATOM     18  C   UNL     1       3.207  62.391 167.127  1.00  0.00     0.058 A
ATOM     19  C   UNL     1       2.110  64.478 167.629  1.00  0.00     0.058 A
ATOM     20  C   UNL     1       3.652  62.932 165.921  1.00  0.00     0.120 A
ATOM     21  C   UNL     1       2.564  65.001 166.420  1.00  0.00     0.120 A
ATOM     22  C   UNL     1       3.336  64.236 165.558  1.00  0.00     0.092 A
BRANCH  20  23
ATOM     23  O   UNL     1       4.414  62.205 165.052  1.00  0.00    -0.508 OA
ATOM     24  H   UNL     1       4.026  62.270 164.163  1.00  0.00     0.293 HD
ENDBRANCH  20  23
BRANCH  21  25
ATOM     25  O   UNL     1       2.223  66.286 166.116  1.00  0.00    -0.508 OA
ATOM     26  H   UNL     1       2.225  66.386 165.150  1.00  0.00     0.293 HD
ENDBRANCH  21  25
ENDBRANCH   8  17
TORSDOF 6
