ROOT
ATOM      1  C   UNL     1       6.000  19.067  33.288  1.00  0.00    -0.002 A
ATOM      2  C   UNL     1       6.077  19.895  34.420  1.00  0.00     0.122 A
ATOM      3  C   UNL     1       5.162  20.925  34.659  1.00  0.00     0.094 A
ATOM      4  C   UNL     1       4.163  21.087  33.702  1.00  0.00     0.138 A
ATOM      5  C   UNL     1       4.036  20.307  32.563  1.00  0.00     0.021 A
ATOM      6  C   UNL     1       4.969  19.278  32.345  1.00  0.00     0.020 A
ATOM      7  C   UNL     1       2.900  20.813  31.876  1.00  0.00     0.059 A
ATOM      8  C   UNL     1       2.403  21.862  32.629  1.00  0.00     0.135 A
ATOM      9  O   UNL     1       3.179  22.025  33.744  1.00  0.00    -0.456 OA
ENDROOT
BRANCH   1  10
ATOM     10  C   UNL     1       7.016  17.973  33.035  1.00  0.00     0.066 C
BRANCH  10  11
ATOM     11  C   UNL     1       8.354  18.521  32.612  1.00  0.00    -0.023 C
ATOM     12  C   UNL     1       9.569  17.951  32.743  1.00  0.00    -0.080 C
ATOM     13  C   UNL     1      10.804  18.657  32.244  1.00  0.00     0.039 C
ATOM     14  C   UNL     1       9.839  16.618  33.382  1.00  0.00     0.039 C
ENDBRANCH  10  11
ENDBRANCH   1  10
BRANCH   2  15
ATOM     15  O   UNL     1       7.084  19.678  35.323  1.00  0.00    -0.508 OA
ATOM     16  H   UNL     1       7.695  20.434  35.300  1.00  0.00     0.293 HD
ENDBRANCH   2  15
BRANCH   8  17
ATOM     17  C   UNL     1       1.278  22.783  32.484  1.00  0.00     0.025 A
ATOM     18  C   UNL     1       1.483  24.173  32.524  1.00  0.00     0.058 A
ATOM     19  C   UNL     1      -0.031  22.310  32.299  1.00  0.00     0.058 A
ATOM     20  C   UNL     1       0.405  25.047  32.384  1.00  0.00     0.120 A
ATOM     21  C   UNL     1      -1.095  23.199  32.162  1.00  0.00     0.120 A
ATOM     22  C   UNL     1      -0.887  24.570  32.203  1.00  0.00     0.092 A
BRANCH  20  23
ATOM     23  O   UNL     1       0.577  26.400  32.421  1.00  0.00    -0.508 OA
ATOM     24  H   UNL     1       1.524  26.600  32.330  1.00  0.00     0.293 HD
ENDBRANCH  20  23
BRANCH  21  25
ATOM     25  O   UNL     1      -2.342  22.675  31.986  1.00  0.00    -0.508 OA
ATOM     26  H   UNL     1      -2.885  22.906  32.758  1.00  0.00     0.293 HD
ENDBRANCH  21  25
ENDBRANCH   8  17
TORSDOF 6
