ROOT
ATOM      1  C   UNL     1       6.464  26.276  53.696  1.00  0.00    -0.018 A
ATOM      2  C   UNL     1       7.345  25.954  52.658  1.00  0.00     0.054 A
ATOM      3  C   UNL     1       6.984  26.217  51.339  1.00  0.00     0.119 A
ATOM      4  C   UNL     1       5.760  26.804  51.028  1.00  0.00     0.092 A
ATOM      5  C   UNL     1       4.876  27.138  52.052  1.00  0.00     0.127 A
ATOM      6  C   UNL     1       5.238  26.881  53.381  1.00  0.00     0.055 A
ENDROOT
BRANCH   1   7
ATOM      7  C   UNL     1       6.874  26.021  55.084  1.00  0.00     0.009 C
ATOM      8  C   UNL     1       6.034  25.593  56.040  1.00  0.00     0.009 C
BRANCH   8   9
ATOM      9  C   UNL     1       6.438  25.341  57.431  1.00  0.00    -0.025 A
ATOM     10  C   UNL     1       7.611  25.882  57.978  1.00  0.00     0.012 A
ATOM     11  C   UNL     1       7.980  25.596  59.297  1.00  0.00     0.047 A
ATOM     12  C   UNL     1       7.178  24.758  60.065  1.00  0.00     0.115 A
ATOM     13  C   UNL     1       5.655  24.488  58.219  1.00  0.00     0.012 A
ATOM     14  C   UNL     1       6.021  24.201  59.536  1.00  0.00     0.047 A
BRANCH  12  15
ATOM     15  O   UNL     1       7.500  24.452  61.354  1.00  0.00    -0.508 OA
ATOM     16  H   UNL     1       8.409  24.111  61.374  1.00  0.00     0.293 HD
ENDBRANCH  12  15
ENDBRANCH   8   9
ENDBRANCH   1   7
BRANCH   3  17
ATOM     17  O   UNL     1       7.818  25.911  50.303  1.00  0.00    -0.508 OA
ATOM     18  H   UNL     1       8.204  26.731  49.957  1.00  0.00     0.293 HD
ENDBRANCH   3  17
BRANCH   5  19
ATOM     19  O   UNL     1       3.649  27.724  51.900  1.00  0.00    -0.462 OA
BRANCH  19  20
ATOM     20  C   UNL     1       3.424  28.515  50.718  1.00  0.00     0.339 C
ATOM     21  C   UNL     1       1.938  28.905  50.756  1.00  0.00     0.214 C
ATOM     22  O   UNL     1       4.248  29.683  50.737  1.00  0.00    -0.332 OA
ATOM     23  C   UNL     1       1.557  29.668  49.484  1.00  0.00     0.180 C
ATOM     24  C   UNL     1       3.825  30.777  49.907  1.00  0.00     0.179 C
ATOM     25  C   UNL     1       2.749  30.413  48.864  1.00  0.00     0.177 C
BRANCH  21  26
ATOM     26  O   UNL     1       1.066  27.770  50.898  1.00  0.00    -0.384 OA
ATOM     27  H   UNL     1       1.556  27.012  50.523  1.00  0.00     0.211 HD
ENDBRANCH  21  26
BRANCH  23  28
ATOM     28  O   UNL     1       0.497  30.584  49.801  1.00  0.00    -0.387 OA
ATOM     29  H   UNL     1      -0.193  30.426  49.127  1.00  0.00     0.211 HD
ENDBRANCH  23  28
BRANCH  24  30
ATOM     30  C   UNL     1       3.410  31.953  50.801  1.00  0.00     0.191 C
BRANCH  30  31
ATOM     31  O   UNL     1       4.249  32.026  51.947  1.00  0.00    -0.394 OA
ATOM     32  H   UNL     1       4.291  31.130  52.326  1.00  0.00     0.210 HD
ENDBRANCH  30  31
ENDBRANCH  24  30
BRANCH  25  33
ATOM     33  O   UNL     1       3.348  29.536  47.889  1.00  0.00    -0.387 OA
ATOM     34  H   UNL     1       2.656  29.319  47.238  1.00  0.00     0.211 HD
ENDBRANCH  25  33
ENDBRANCH  19  20
ENDBRANCH   5  19
TORSDOF 11
