ROOT
ATOM      1  C   UNL     1       2.500  63.165 167.790  1.00  0.00    -0.018 A
ATOM      2  C   UNL     1       3.277  62.421 166.896  1.00  0.00     0.054 A
ATOM      3  C   UNL     1       3.793  63.031 165.755  1.00  0.00     0.119 A
ATOM      4  C   UNL     1       3.557  64.377 165.487  1.00  0.00     0.092 A
ATOM      5  C   UNL     1       2.791  65.132 166.372  1.00  0.00     0.127 A
ATOM      6  C   UNL     1       2.276  64.524 167.524  1.00  0.00     0.055 A
ENDROOT
BRANCH   1   7
ATOM      7  C   UNL     1       1.990  62.513 169.004  1.00  0.00     0.009 C
ATOM      8  C   UNL     1       1.136  63.098 169.859  1.00  0.00     0.009 C
BRANCH   8   9
ATOM      9  C   UNL     1       0.627  62.453 171.078  1.00  0.00    -0.025 A
ATOM     10  C   UNL     1      -0.445  62.981 171.812  1.00  0.00     0.012 A
ATOM     11  C   UNL     1      -0.883  62.357 172.984  1.00  0.00     0.047 A
ATOM     12  C   UNL     1      -0.239  61.206 173.428  1.00  0.00     0.115 A
ATOM     13  C   UNL     1       1.269  61.303 171.553  1.00  0.00     0.012 A
ATOM     14  C   UNL     1       0.834  60.677 172.723  1.00  0.00     0.047 A
BRANCH  12  15
ATOM     15  O   UNL     1      -0.632  60.566 174.565  1.00  0.00    -0.508 OA
ATOM     16  H   UNL     1      -0.153  59.724 174.629  1.00  0.00     0.293 HD
ENDBRANCH  12  15
ENDBRANCH   8   9
ENDBRANCH   1   7
BRANCH   3  17
ATOM     17  O   UNL     1       4.551  62.332 164.861  1.00  0.00    -0.508 OA
ATOM     18  H   UNL     1       5.150  61.744 165.349  1.00  0.00     0.293 HD
ENDBRANCH   3  17
BRANCH   5  19
ATOM     19  O   UNL     1       2.484  66.459 166.244  1.00  0.00    -0.462 OA
BRANCH  19  20
ATOM     20  C   UNL     1       1.190  66.802 165.714  1.00  0.00     0.339 C
ATOM     21  C   UNL     1       1.012  68.303 165.989  1.00  0.00     0.214 C
ATOM     22  O   UNL     1       1.145  66.542 164.308  1.00  0.00    -0.332 OA
ATOM     23  C   UNL     1      -0.384  68.761 165.556  1.00  0.00     0.180 C
ATOM     24  C   UNL     1       0.134  67.241 163.563  1.00  0.00     0.179 C
ATOM     25  C   UNL     1      -0.962  67.897 164.425  1.00  0.00     0.177 C
BRANCH  21  26
ATOM     26  O   UNL     1       1.207  68.644 167.373  1.00  0.00    -0.384 OA
ATOM     27  H   UNL     1       0.338  68.956 167.693  1.00  0.00     0.211 HD
ENDBRANCH  21  26
BRANCH  23  28
ATOM     28  O   UNL     1      -0.311  70.137 165.156  1.00  0.00    -0.387 OA
ATOM     29  H   UNL     1       0.589  70.431 165.398  1.00  0.00     0.211 HD
ENDBRANCH  23  28
BRANCH  24  30
ATOM     30  C   UNL     1       0.814  68.234 162.611  1.00  0.00     0.191 C
BRANCH  30  31
ATOM     31  O   UNL     1       1.763  67.567 161.789  1.00  0.00    -0.394 OA
ATOM     32  H   UNL     1       1.344  67.437 160.919  1.00  0.00     0.210 HD
ENDBRANCH  30  31
ENDBRANCH  24  30
BRANCH  25  33
ATOM     33  O   UNL     1      -1.740  66.847 165.035  1.00  0.00    -0.387 OA
ATOM     34  H   UNL     1      -1.109  66.222 165.437  1.00  0.00     0.211 HD
ENDBRANCH  25  33
ENDBRANCH  19  20
ENDBRANCH   5  19
TORSDOF 11
