ROOT
ATOM      1  C   UNL     1       4.766  19.758  32.543  1.00  0.00    -0.018 A
ATOM      2  C   UNL     1       3.957  19.064  31.638  1.00  0.00     0.054 A
ATOM      3  C   UNL     1       2.776  19.645  31.181  1.00  0.00     0.119 A
ATOM      4  C   UNL     1       2.385  20.913  31.603  1.00  0.00     0.092 A
ATOM      5  C   UNL     1       3.185  21.619  32.498  1.00  0.00     0.127 A
ATOM      6  C   UNL     1       4.377  21.042  32.955  1.00  0.00     0.055 A
ENDROOT
BRANCH   1   7
ATOM      7  C   UNL     1       6.025  19.144  32.990  1.00  0.00     0.009 C
ATOM      8  C   UNL     1       6.726  18.266  32.254  1.00  0.00     0.009 C
BRANCH   8   9
ATOM      9  C   UNL     1       7.981  17.645  32.698  1.00  0.00    -0.025 A
ATOM     10  C   UNL     1       9.210  18.320  32.645  1.00  0.00     0.012 A
ATOM     11  C   UNL     1      10.390  17.687  33.047  1.00  0.00     0.047 A
ATOM     12  C   UNL     1      10.341  16.370  33.494  1.00  0.00     0.115 A
ATOM     13  C   UNL     1       7.960  16.315  33.138  1.00  0.00     0.012 A
ATOM     14  C   UNL     1       9.137  15.680  33.541  1.00  0.00     0.047 A
BRANCH  12  15
ATOM     15  O   UNL     1      11.467  15.715  33.895  1.00  0.00    -0.508 OA
ATOM     16  H   UNL     1      11.633  14.980  33.283  1.00  0.00     0.293 HD
ENDBRANCH  12  15
ENDBRANCH   8   9
ENDBRANCH   1   7
BRANCH   3  17
ATOM     17  O   UNL     1       1.962  18.992  30.302  1.00  0.00    -0.508 OA
ATOM     18  H   UNL     1       1.211  18.615  30.789  1.00  0.00     0.293 HD
ENDBRANCH   3  17
BRANCH   5  19
ATOM     19  O   UNL     1       2.934  22.870  32.992  1.00  0.00    -0.462 OA
BRANCH  19  20
ATOM     20  C   UNL     1       1.633  23.438  32.753  1.00  0.00     0.339 C
ATOM     21  C   UNL     1       1.803  24.955  32.931  1.00  0.00     0.214 C
ATOM     22  O   UNL     1       1.195  23.136  31.425  1.00  0.00    -0.332 OA
ATOM     23  C   UNL     1       0.449  25.660  32.801  1.00  0.00     0.180 C
ATOM     24  C   UNL     1       0.175  23.990  30.881  1.00  0.00     0.179 C
ATOM     25  C   UNL     1      -0.538  24.882  31.917  1.00  0.00     0.177 C
BRANCH  21  26
ATOM     26  O   UNL     1       2.392  25.306  34.195  1.00  0.00    -0.384 OA
ATOM     27  H   UNL     1       1.757  25.913  34.623  1.00  0.00     0.211 HD
ENDBRANCH  21  26
BRANCH  23  28
ATOM     28  O   UNL     1       0.668  26.978  32.277  1.00  0.00    -0.387 OA
ATOM     29  H   UNL     1       1.623  27.023  32.076  1.00  0.00     0.211 HD
ENDBRANCH  23  28
BRANCH  24  30
ATOM     30  C   UNL     1       0.765  24.792  29.713  1.00  0.00     0.191 C
BRANCH  30  31
ATOM     31  O   UNL     1       2.167  24.574  29.618  1.00  0.00    -0.394 OA
ATOM     32  H   UNL     1       2.408  24.683  28.681  1.00  0.00     0.210 HD
ENDBRANCH  30  31
ENDBRANCH  24  30
BRANCH  25  33
ATOM     33  O   UNL     1      -1.316  24.030  32.781  1.00  0.00    -0.387 OA
ATOM     34  H   UNL     1      -1.289  23.134  32.398  1.00  0.00     0.211 HD
ENDBRANCH  25  33
ENDBRANCH  19  20
ENDBRANCH   5  19
TORSDOF 11
