ROOT
ATOM      1  C1  OEF A1461       6.452  19.093  33.170  1.00  0.00    -0.045 A
ATOM      2  C3  OEF A1461       5.918  18.539  31.999  1.00  0.00     0.023 A
ATOM      3  C5  OEF A1461       4.651  18.921  31.547  1.00  0.00     0.062 A
ATOM      4  C7  OEF A1461       3.908  19.876  32.252  1.00  0.00     0.155 A
ATOM      5  C9  OEF A1461       4.424  20.407  33.440  1.00  0.00     0.062 A
ATOM      6  C11 OEF A1461       5.692  20.024  33.891  1.00  0.00     0.023 A
ATOM      7 BR1  OEF A1461       3.982  18.099  29.972  1.00  0.00    -0.047 Br
ATOM      8 BR2  OEF A1461       3.442  21.644  34.492  1.00  0.00    -0.047 Br
ENDROOT
BRANCH   1   9
ATOM      9  C13 OEF A1461       7.815  18.669  33.668  1.00  0.00     0.047 C
BRANCH   9  10
ATOM     10  C14 OEF A1461       8.552  17.755  32.692  1.00  0.00     0.127 C
BRANCH  10  11
ATOM     11  C18 OEF A1461       9.054  16.491  33.330  1.00  0.00     0.303 C
ATOM     12  O3  OEF A1461      10.140  16.342  33.864  1.00  0.00    -0.252 OA
BRANCH  11  13
ATOM     13  O4  OEF A1461       8.150  15.494  33.333  1.00  0.00    -0.481 OA
ATOM     14  H   UNL     1       7.775  15.516  32.426  1.00  0.00     0.296 HD
ENDBRANCH  11  13
ENDBRANCH  10  11
ENDBRANCH   9  10
ENDBRANCH   1   9
BRANCH   4  15
ATOM     15  O2  OEF A1461       2.650  20.228  31.827  1.00  0.00    -0.455 OA
BRANCH  15  16
ATOM     16  C2  OEF A1461       2.482  21.465  31.237  1.00  0.00     0.128 A
ATOM     17  C4  OEF A1461       1.350  22.170  31.664  1.00  0.00     0.055 A
ATOM     18  C12 OEF A1461       3.325  22.036  30.288  1.00  0.00     0.051 A
ATOM     19  C6  OEF A1461       1.028  23.449  31.163  1.00  0.00     0.000 A
ATOM     20  C10 OEF A1461       3.028  23.301  29.778  1.00  0.00     0.050 A
ATOM     21  C8  OEF A1461       1.896  23.997  30.209  1.00  0.00     0.119 A
BRANCH  19  22
ATOM     22  C15 OEF A1461      -0.227  24.113  31.706  1.00  0.00     0.017 C
ATOM     23  C16 OEF A1461       0.073  25.157  32.785  1.00  0.00     0.012 C
ATOM     24  C17 OEF A1461      -1.285  23.104  32.158  1.00  0.00     0.012 C
ENDBRANCH  19  22
BRANCH  21  25
ATOM     25  O1  OEF A1461       1.729  25.219  29.627  1.00  0.00    -0.508 OA
ATOM     26  H   UNL     1       1.119  25.146  28.882  1.00  0.00     0.293 HD
ENDBRANCH  21  25
ENDBRANCH  15  16
ENDBRANCH   4  15
TORSDOF 8
