ROOT
ATOM      1  C   UNL     1      -1.108  62.342 173.461  1.00  0.00     0.088 C
ATOM      2  C   UNL     1      -0.254  62.346 172.234  1.00  0.00     0.105 C
ATOM      3  C   UNL     1      -0.483  63.122 171.169  1.00  0.00     0.051 C
ATOM      4  C   UNL     1       0.420  63.040 170.030  1.00  0.00    -0.003 A
ATOM      5  C   UNL     1       0.210  63.836 168.900  1.00  0.00     0.018 A
ATOM      6  C   UNL     1       1.071  63.770 167.790  1.00  0.00    -0.007 A
ATOM      7  C   UNL     1       0.838  64.582 166.665  1.00  0.00     0.055 A
ATOM      8  C   UNL     1       1.673  64.543 165.546  1.00  0.00     0.123 A
ATOM      9  C   UNL     1       2.760  63.680 165.542  1.00  0.00     0.093 A
ATOM     10  C   UNL     1       3.002  62.868 166.652  1.00  0.00     0.130 A
ATOM     11  C   UNL     1       2.175  62.886 167.802  1.00  0.00     0.067 A
ATOM     12  C   UNL     1       2.372  62.084 168.959  1.00  0.00     0.142 A
ATOM     13  C   UNL     1       1.502  62.161 170.061  1.00  0.00     0.110 A
ATOM     14  C   UNL     1       1.718  61.321 171.259  1.00  0.00     0.347 C
ATOM     15  O   UNL     1       2.668  60.544 171.299  1.00  0.00    -0.246 OA
ATOM     16  O   UNL     1       0.835  61.449 172.291  1.00  0.00    -0.428 OA
ENDROOT
BRANCH  12  17
ATOM     17  O   UNL     1       3.455  61.225 168.952  1.00  0.00    -0.506 OA
ATOM     18  H   UNL     1       3.956  61.355 168.111  1.00  0.00     0.293 HD
ENDBRANCH  12  17
BRANCH   8  19
ATOM     19  O   UNL     1       1.314  65.392 164.535  1.00  0.00    -0.497 OA
ATOM     20  C   UNL     1       1.583  66.774 164.734  1.00  0.00     0.278 C
ENDBRANCH   8  19
BRANCH  10  21
ATOM     21  O   UNL     1       4.099  62.048 166.557  1.00  0.00    -0.507 OA
ATOM     22  H   UNL     1       3.818  61.167 166.883  1.00  0.00     0.293 HD
ENDBRANCH  10  21
TORSDOF 3
