ROOT
ATOM      1  C   UNL     1       1.211  25.011  33.338  1.00  0.00     0.088 C
ATOM      2  C   UNL     1       1.973  23.820  32.853  1.00  0.00     0.105 C
ATOM      3  C   UNL     1       2.899  23.182  33.577  1.00  0.00     0.051 C
ATOM      4  C   UNL     1       3.577  22.031  32.998  1.00  0.00    -0.003 A
ATOM      5  C   UNL     1       4.549  21.340  33.727  1.00  0.00     0.018 A
ATOM      6  C   UNL     1       5.215  20.227  33.184  1.00  0.00    -0.007 A
ATOM      7  C   UNL     1       6.190  19.549  33.938  1.00  0.00     0.055 A
ATOM      8  C   UNL     1       6.871  18.440  33.430  1.00  0.00     0.123 A
ATOM      9  C   UNL     1       6.578  17.994  32.149  1.00  0.00     0.093 A
ATOM     10  C   UNL     1       5.613  18.657  31.390  1.00  0.00     0.130 A
ATOM     11  C   UNL     1       4.905  19.785  31.877  1.00  0.00     0.067 A
ATOM     12  C   UNL     1       3.914  20.499  31.151  1.00  0.00     0.142 A
ATOM     13  C   UNL     1       3.257  21.611  31.707  1.00  0.00     0.110 A
ATOM     14  C   UNL     1       2.227  22.347  30.941  1.00  0.00     0.347 C
ATOM     15  O   UNL     1       1.936  21.986  29.804  1.00  0.00    -0.246 OA
ATOM     16  O   UNL     1       1.630  23.415  31.544  1.00  0.00    -0.428 OA
ENDROOT
BRANCH  12  17
ATOM     17  O   UNL     1       3.624  20.053  29.874  1.00  0.00    -0.506 OA
ATOM     18  H   UNL     1       4.361  19.470  29.569  1.00  0.00     0.293 HD
ENDBRANCH  12  17
BRANCH   8  19
ATOM     19  O   UNL     1       7.788  17.892  34.285  1.00  0.00    -0.497 OA
ATOM     20  C   UNL     1       9.041  17.519  33.726  1.00  0.00     0.278 C
ENDBRANCH   8  19
BRANCH  10  21
ATOM     21  O   UNL     1       5.391  18.146  30.136  1.00  0.00    -0.507 OA
ATOM     22  H   UNL     1       4.990  18.867  29.607  1.00  0.00     0.293 HD
ENDBRANCH  10  21
TORSDOF 3
