ROOT
ATOM      1  C   UNL     1       4.471  22.937  60.986  1.00  0.00     0.088 C
ATOM      2  C   UNL     1       5.207  23.718  59.945  1.00  0.00     0.105 C
ATOM      3  C   UNL     1       4.810  23.821  58.672  1.00  0.00     0.051 C
ATOM      4  C   UNL     1       5.609  24.611  57.746  1.00  0.00    -0.003 A
ATOM      5  C   UNL     1       5.223  24.740  56.408  1.00  0.00     0.018 A
ATOM      6  C   UNL     1       5.983  25.499  55.500  1.00  0.00    -0.007 A
ATOM      7  C   UNL     1       5.573  25.613  54.159  1.00  0.00     0.055 A
ATOM      8  C   UNL     1       6.303  26.358  53.229  1.00  0.00     0.123 A
ATOM      9  C   UNL     1       7.462  27.003  53.638  1.00  0.00     0.093 A
ATOM     10  C   UNL     1       7.879  26.898  54.966  1.00  0.00     0.130 A
ATOM     11  C   UNL     1       7.161  26.150  55.932  1.00  0.00     0.067 A
ATOM     12  C   UNL     1       7.537  26.007  57.295  1.00  0.00     0.142 A
ATOM     13  C   UNL     1       6.768  25.245  58.192  1.00  0.00     0.110 A
ATOM     14  C   UNL     1       7.170  25.104  59.609  1.00  0.00     0.347 C
ATOM     15  O   UNL     1       8.189  25.658  60.014  1.00  0.00    -0.246 OA
ATOM     16  O   UNL     1       6.376  24.350  60.422  1.00  0.00    -0.428 OA
ENDROOT
BRANCH  12  17
ATOM     17  O   UNL     1       8.693  26.650  57.700  1.00  0.00    -0.506 OA
ATOM     18  H   UNL     1       8.527  27.075  58.575  1.00  0.00     0.293 HD
ENDBRANCH  12  17
BRANCH   8  19
ATOM     19  O   UNL     1       5.775  26.372  51.967  1.00  0.00    -0.497 OA
ATOM     20  C   UNL     1       6.699  26.366  50.886  1.00  0.00     0.278 C
ENDBRANCH   8  19
BRANCH  10  21
ATOM     21  O   UNL     1       9.035  27.568  55.278  1.00  0.00    -0.507 OA
ATOM     22  H   UNL     1       8.773  28.483  55.512  1.00  0.00     0.293 HD
ENDBRANCH  10  21
TORSDOF 3
