REMARK SMILES CO[C@@H](O)CC[C@H]1CCC[C@H](N(C[C@H]2CC[C@H]([C@H]3CC[C@H](N(C)C)CC3)CC2)[C@H]2OC23CCCCC3)C1
REMARK SMILES IDX 7 1 8 2 9 3 10 4 11 5 37 6 6 7 5 8 3 9 2 10 1 11 4 12 12 14
REMARK SMILES IDX 13 15 14 16 28 17 15 18 27 19 16 20 17 21 18 22 26 23 19 24
REMARK SMILES IDX 25 25 20 26 21 27 22 28 23 29 24 30 29 31 30 32 31 33 32 34
REMARK SMILES IDX 36 35 33 36 35 37 34 38
REMARK H PARENT 4 13
ROOT
ATOM      1  C   UNL     1      -4.370   2.015   0.636  1.00  0.00    -0.009 C 
ATOM      2  C   UNL     1      -4.815   1.821   2.091  1.00  0.00     0.004 C 
ATOM      3  C   UNL     1      -4.830   0.355   2.507  1.00  0.00     0.002 C 
ATOM      4  C   UNL     1      -3.476  -0.310   2.271  1.00  0.00     0.019 C 
ATOM      5  C   UNL     1      -2.996  -0.179   0.808  1.00  0.00     0.059 C 
ATOM      6  C   UNL     1      -3.009   1.318   0.411  1.00  0.00     0.022 C 
ENDROOT
BRANCH   1   7
ATOM      7  C   UNL     1      -5.411   1.545  -0.404  1.00  0.00     0.009 C 
BRANCH   7   8
ATOM      8  C   UNL     1      -6.789   2.221  -0.363  1.00  0.00     0.062 C 
BRANCH   8   9
ATOM      9  C   UNL     1      -6.779   3.722  -0.672  1.00  0.00     0.246 C 
BRANCH   9  10
ATOM     10  O   UNL     1      -8.121   4.132  -0.907  1.00  0.00    -0.356 OA
ATOM     11  C   UNL     1      -8.191   5.441  -1.459  1.00  0.00     0.198 C 
ENDBRANCH   9  10
BRANCH   9  12
ATOM     12  O   UNL     1      -6.261   4.465   0.415  1.00  0.00    -0.368 OA
ATOM     13  H   UNL     1      -6.777   4.182   1.188  1.00  0.00     0.213 HD
ENDBRANCH   9  12
ENDBRANCH   8   9
ENDBRANCH   7   8
ENDBRANCH   1   7
BRANCH   5  14
ATOM     14  N   UNL     1      -1.683  -0.854   0.679  1.00  0.00    -0.273 NA
BRANCH  14  15
ATOM     15  C   UNL     1      -0.761  -0.337  -0.338  1.00  0.00     0.091 C 
BRANCH  15  16
ATOM     16  C   UNL     1       0.674  -0.924  -0.274  1.00  0.00     0.003 C 
ATOM     17  C   UNL     1       1.538  -0.373  -1.428  1.00  0.00     0.005 C 
ATOM     18  C   UNL     1       1.327  -0.661   1.098  1.00  0.00     0.005 C 
ATOM     19  C   UNL     1       2.412   0.796  -0.984  1.00  0.00     0.004 C 
ATOM     20  C   UNL     1       2.849  -0.719   1.014  1.00  0.00     0.004 C 
ATOM     21  C   UNL     1       3.436   0.384   0.102  1.00  0.00    -0.008 C 
BRANCH  21  22
ATOM     22  C   UNL     1       4.824  -0.031  -0.490  1.00  0.00    -0.008 C 
ATOM     23  C   UNL     1       5.415   1.087  -1.385  1.00  0.00     0.005 C 
ATOM     24  C   UNL     1       5.846  -0.470   0.587  1.00  0.00     0.005 C 
ATOM     25  C   UNL     1       6.941   1.086  -1.402  1.00  0.00     0.019 C 
ATOM     26  C   UNL     1       6.672   0.700   1.114  1.00  0.00     0.019 C 
ATOM     27  C   UNL     1       7.504   1.384   0.005  1.00  0.00     0.056 C 
BRANCH  27  28
ATOM     28  N   UNL     1       8.963   1.147   0.033  1.00  0.00    -0.306 NA
ATOM     29  C   UNL     1       9.611   1.879   1.123  1.00  0.00     0.105 C 
ATOM     30  C   UNL     1       9.354  -0.262   0.074  1.00  0.00     0.105 C 
ENDBRANCH  27  28
ENDBRANCH  21  22
ENDBRANCH  15  16
ENDBRANCH  14  15
BRANCH  14  31
ATOM     31  C   UNL     1      -1.721  -2.331   0.782  1.00  0.00     0.222 C 
ATOM     32  O   UNL     1      -2.996  -2.984   0.660  1.00  0.00    -0.349 OA
ATOM     33  C   UNL     1      -2.045  -3.289  -0.361  1.00  0.00     0.110 C 
ATOM     34  C   UNL     1      -1.483  -4.685  -0.291  1.00  0.00     0.040 C 
ATOM     35  C   UNL     1      -2.475  -2.839  -1.730  1.00  0.00     0.040 C 
ATOM     36  C   UNL     1      -2.422  -5.692  -0.950  1.00  0.00     0.003 C 
ATOM     37  C   UNL     1      -3.403  -3.865  -2.381  1.00  0.00     0.003 C 
ATOM     38  C   UNL     1      -2.793  -5.265  -2.369  1.00  0.00     0.000 C 
ENDBRANCH  14  31
ENDBRANCH   5  14
TORSDOF 11
