REMARK SMILES COc1ccccc1[C@H](Cn1c(=O)n(C(C)(C)C(N)=O)c(=O)c2c(C)c(-c3ncco3)sc21)OC1CCOCC1
REMARK SMILES IDX 10 1 11 2 26 3 24 4 32 5 23 6 33 7 21 8 22 9 14 10 12 11
REMARK SMILES IDX 13 12 25 13 27 14 31 15 30 16 29 17 28 18 15 19 16 20 17 21
REMARK SMILES IDX 18 22 20 23 19 24 9 27 34 28 35 29 36 30 40 31 37 32 39 33
REMARK SMILES IDX 38 34 8 35 7 36 3 37 6 38 4 39 5 40 2 41 1 42
REMARK H PARENT 19 25 19 26
ROOT
ATOM      1  C   UNL     1      52.245  39.259  44.361  1.00  0.00     0.165 C 
ENDROOT
BRANCH   1   2
ATOM      2  N   UNL     1      53.561  39.020  45.020  1.00  0.00    -0.281 N 
ATOM      3  C   UNL     1      55.294  42.201  46.029  1.00  0.00     0.095 A 
ATOM      4  C   UNL     1      56.018  41.139  46.412  1.00  0.00    -0.013 A 
ATOM      5  S   UNL     1      53.920  41.642  45.226  1.00  0.00    -0.111 S 
ATOM      6  C   UNL     1      55.448  39.963  46.071  1.00  0.00     0.079 A 
ATOM      7  C   UNL     1      54.269  40.095  45.417  1.00  0.00     0.113 A 
ATOM      8  C   UNL     1      55.910  38.721  46.316  1.00  0.00     0.266 A 
ATOM      9  O   UNL     1      56.968  38.542  46.909  1.00  0.00    -0.268 OA
ATOM     10  N   UNL     1      55.238  37.629  45.950  1.00  0.00    -0.245 N 
ATOM     11  C   UNL     1      54.048  37.788  45.290  1.00  0.00     0.333 A 
ATOM     12  O   UNL     1      53.401  36.819  44.929  1.00  0.00    -0.247 OA
ATOM     13  C   UNL     1      57.366  41.190  47.164  1.00  0.00     0.047 C 
BRANCH   3  14
ATOM     14  C   UNL     1      55.516  43.504  46.215  1.00  0.00     0.236 A 
ATOM     15  O   UNL     1      54.610  44.491  45.860  1.00  0.00    -0.444 OA
ATOM     16  C   UNL     1      55.161  45.661  46.248  1.00  0.00     0.218 A 
ATOM     17  C   UNL     1      56.331  45.385  46.830  1.00  0.00     0.154 A 
ATOM     18  N   UNL     1      56.539  44.054  46.823  1.00  0.00    -0.217 NA
ENDBRANCH   3  14
BRANCH  10  19
ATOM     19  C   UNL     1      55.845  36.273  46.241  1.00  0.00     0.125 C 
ATOM     20  C   UNL     1      57.295  36.280  46.816  1.00  0.00     0.046 C 
ATOM     21  C   UNL     1      54.946  35.350  47.113  1.00  0.00     0.046 C 
BRANCH  19  22
ATOM     22  C   UNL     1      56.153  35.745  44.887  1.00  0.00     0.243 C 
ATOM     23  O   UNL     1      55.282  35.144  44.227  1.00  0.00    -0.273 OA
ATOM     24  N   UNL     1      57.404  36.151  44.516  1.00  0.00    -0.368 N 
ATOM     25  H   UNL     1      57.784  35.875  43.600  1.00  0.00     0.159 HD
ATOM     26  H   UNL     1      57.966  36.733  45.153  1.00  0.00     0.159 HD
ENDBRANCH  19  22
ENDBRANCH  10  19
ENDBRANCH   1   2
BRANCH   1  27
ATOM     27  C   UNL     1      52.115  38.926  42.897  1.00  0.00     0.172 C 
BRANCH  27  28
ATOM     28  O   UNL     1      53.022  39.742  42.196  1.00  0.00    -0.368 OA
BRANCH  28  29
ATOM     29  C   UNL     1      53.698  38.966  41.199  1.00  0.00     0.123 C 
ATOM     30  C   UNL     1      54.872  38.257  41.849  1.00  0.00     0.060 C 
ATOM     31  C   UNL     1      54.212  39.913  40.094  1.00  0.00     0.060 C 
ATOM     32  C   UNL     1      55.574  37.434  40.772  1.00  0.00     0.163 C 
ATOM     33  C   UNL     1      55.032  39.109  39.072  1.00  0.00     0.163 C 
ATOM     34  O   UNL     1      56.070  38.334  39.748  1.00  0.00    -0.381 OA
ENDBRANCH  28  29
ENDBRANCH  27  28
BRANCH  27  35
ATOM     35  C   UNL     1      50.797  39.164  42.456  1.00  0.00     0.025 A 
ATOM     36  C   UNL     1      50.518  40.310  41.701  1.00  0.00     0.010 A 
ATOM     37  C   UNL     1      49.740  38.274  42.742  1.00  0.00     0.124 A 
ATOM     38  C   UNL     1      49.233  40.575  41.236  1.00  0.00     0.001 A 
ATOM     39  C   UNL     1      48.455  38.547  42.270  1.00  0.00     0.047 A 
ATOM     40  C   UNL     1      48.193  39.698  41.528  1.00  0.00     0.004 A 
BRANCH  37  41
ATOM     41  O   UNL     1      50.024  37.151  43.502  1.00  0.00    -0.496 OA
ATOM     42  C   UNL     1      48.870  36.319  43.725  1.00  0.00     0.278 C 
ENDBRANCH  37  41
ENDBRANCH  27  35
ENDBRANCH   1  27
TORSDOF 9
