REMARK SMILES CO[C@H]1CCCC[C@@H](c2ccccc2)OC(=O)[C@@H](C)[C@@]2(O)O[C@H]([C@@H](C)[C@H](O)[C@H]2OC)[C@@H](C)C=C[C@H]1OC
REMARK SMILES IDX 18 1 19 2 16 3 17 4 15 5 8 6 7 7 6 8 5 9 4 10 9 12 10 13
REMARK SMILES IDX 14 14 11 15 13 16 12 17 20 18 28 19 22 20 26 21 23 22 24 23
REMARK SMILES IDX 25 24 21 25 29 27 30 28 27 29 31 31 32 32 33 33 34 34 35 35
REMARK SMILES IDX 3 36 2 38 1 39 36 40 37 41
REMARK H PARENT 21 26 27 30
REMARK Flexibility Score:   80.900
ROOT
ATOM      1  C   UNL     1     -26.817 -20.350  38.698  1.00  0.00     0.158 C 
ATOM      2  C   UNL     1     -27.900 -20.604  37.594  1.00  0.00     0.026 C 
ENDROOT
BRANCH   1   3
ATOM      3  C   UNL     1     -27.545 -20.105  40.029  1.00  0.00     0.314 C 
ATOM      4  O   UNL     1     -27.085 -20.565  41.058  1.00  0.00    -0.252 OA
BRANCH   3   5
ATOM      5  O   UNL     1     -28.706 -19.370  39.967  1.00  0.00    -0.457 OA
BRANCH   5   6
ATOM      6  C   UNL     1     -29.576 -19.398  41.162  1.00  0.00     0.206 C 
BRANCH   6   7
ATOM      7  C   UNL     1     -30.228 -18.003  41.398  1.00  0.00     0.050 C 
BRANCH   7   8
ATOM      8  C   UNL     1     -29.282 -16.820  41.128  1.00  0.00     0.004 C 
BRANCH   8   9
ATOM      9  C   UNL     1     -28.159 -16.731  42.186  1.00  0.00     0.003 C 
BRANCH   9  10
ATOM     10  C   UNL     1     -27.244 -15.502  41.984  1.00  0.00     0.035 CG0
ATOM     11  G   UNL     1     -26.327 -15.242  43.224  1.00  0.00     0.000 G0
ENDBRANCH   9  10
ENDBRANCH   8   9
ENDBRANCH   7   8
ENDBRANCH   6   7
BRANCH   6  12
ATOM     12  C   UNL     1     -30.718 -20.418  41.011  1.00  0.00    -0.008 A 
ATOM     13  C   UNL     1     -31.412 -20.540  39.770  1.00  0.00     0.007 A 
ATOM     14  C   UNL     1     -31.090 -21.238  42.106  1.00  0.00     0.007 A 
ATOM     15  C   UNL     1     -32.464 -21.478  39.628  1.00  0.00     0.000 A 
ATOM     16  C   UNL     1     -32.142 -22.177  41.972  1.00  0.00     0.000 A 
ATOM     17  C   UNL     1     -32.829 -22.301  40.736  1.00  0.00     0.000 A 
ENDBRANCH   6  12
ENDBRANCH   5   6
ENDBRANCH   3   5
ENDBRANCH   1   3
BRANCH   1  18
ATOM     18  C   UNL     1     -25.822 -19.190  38.342  1.00  0.00     0.208 C 
ATOM     19  C   UNL     1     -25.064 -19.422  36.942  1.00  0.00     0.207 C 
ATOM     20  O   UNL     1     -24.857 -19.155  39.453  1.00  0.00    -0.343 OA
ATOM     21  C   UNL     1     -23.908 -18.345  36.820  1.00  0.00     0.154 C 
ATOM     22  C   UNL     1     -23.810 -18.121  39.359  1.00  0.00     0.134 C 
ATOM     23  C   UNL     1     -22.940 -18.406  38.045  1.00  0.00     0.047 C 
ATOM     24  C   UNL     1     -22.190 -19.777  38.141  1.00  0.00     0.013 C 
BRANCH  18  25
ATOM     25  O   UNL     1     -26.540 -17.946  38.278  1.00  0.00    -0.363 OA
ATOM     26  H   UNL     1     -26.726 -17.624  39.196  1.00  0.00     0.214 HD
ENDBRANCH  18  25
BRANCH  19  27
ATOM     27  O   UNL     1     -24.611 -20.786  36.823  1.00  0.00    -0.373 OA
ATOM     28  C   UNL     1     -24.522 -21.301  35.465  1.00  0.00     0.195 C 
ENDBRANCH  19  27
BRANCH  21  29
ATOM     29  O   UNL     1     -24.448 -17.034  36.665  1.00  0.00    -0.390 OA
ATOM     30  H   UNL     1     -24.612 -16.637  37.557  1.00  0.00     0.211 HD
ENDBRANCH  21  29
BRANCH  22  31
ATOM     31  C   UNL     1     -22.992 -18.068  40.700  1.00  0.00     0.038 C 
ATOM     32  C   UNL     1     -21.865 -16.958  40.627  1.00  0.00     0.015 C 
BRANCH  31  33
ATOM     33  C   UNL     1     -23.982 -17.814  41.857  1.00  0.00    -0.023 C 
ATOM     34  C   UNL     1     -24.317 -16.604  42.388  1.00  0.00     0.003 C 
BRANCH  34  35
ATOM     35  C   UNL     1     -25.321 -16.403  43.522  1.00  0.00     0.169 C 
BRANCH  35  36
ATOM     36  C   UNL     1     -26.327 -15.242  43.224  1.00  0.00     0.150 CG0
ATOM     37  G   UNL     1     -27.244 -15.502  41.984  1.00  0.00     0.000 G0
BRANCH  36  38
ATOM     38  O   UNL     1     -25.520 -14.044  43.083  1.00  0.00    -0.378 OA
ATOM     39  C   UNL     1     -26.239 -12.774  43.059  1.00  0.00     0.195 C 
ENDBRANCH  36  38
ENDBRANCH  35  36
BRANCH  35  40
ATOM     40  O   UNL     1     -24.640 -16.067  44.758  1.00  0.00    -0.375 OA
ATOM     41  C   UNL     1     -24.245 -17.216  45.544  1.00  0.00     0.195 C 
ENDBRANCH  35  40
ENDBRANCH  34  35
ENDBRANCH  31  33
ENDBRANCH  22  31
ENDBRANCH   1  18
TORSDOF 6
