REMARK SMILES N[C@@H](Cc1cc(I)c(Oc2ccc(O)c(I)c2)c(I)c1)C(=O)O
REMARK SMILES IDX 8 1 18 2 20 3 4 4 5 5 6 6 7 7 19 8 9 9 10 10 11 11 12 12
REMARK SMILES IDX 13 13 17 14 15 15 16 16 14 17 3 19 2 20 21 21 22 22 23 23
REMARK SMILES IDX 1 25
REMARK H PARENT 14 18 23 24 1 26 1 27
ROOT
ATOM      1  C   UNL     1       0.641  -1.523  -0.653  1.00  0.00     0.154 A 
ATOM      2  C   UNL     1       0.050  -1.890   0.564  1.00  0.00     0.057 A 
ATOM      3  C   UNL     1      -1.298  -1.601   0.809  1.00  0.00     0.022 A 
ATOM      4  C   UNL     1      -2.078  -0.962  -0.166  1.00  0.00    -0.043 A 
ATOM      5  C   UNL     1      -1.493  -0.634  -1.396  1.00  0.00     0.022 A 
ATOM      6  C   UNL     1      -0.146  -0.922  -1.645  1.00  0.00     0.057 A 
ATOM      7  I   UNL     1       0.617  -0.427  -3.535  1.00  0.00    -0.040 I 
ATOM      8  I   UNL     1       1.110  -2.891   2.072  1.00  0.00    -0.040 I 
ENDROOT
BRANCH   1   9
ATOM      9  O   UNL     1       1.961  -1.817  -0.900  1.00  0.00    -0.455 OA
BRANCH   9  10
ATOM     10  C   UNL     1       2.916  -0.881  -0.549  1.00  0.00     0.128 A 
ATOM     11  C   UNL     1       4.236  -1.278  -0.783  1.00  0.00     0.051 A 
ATOM     12  C   UNL     1       5.299  -0.427  -0.472  1.00  0.00     0.051 A 
ATOM     13  C   UNL     1       5.040   0.829   0.076  1.00  0.00     0.129 A 
ATOM     14  C   UNL     1       2.659   0.380  -0.003  1.00  0.00     0.065 A 
ATOM     15  C   UNL     1       3.723   1.234   0.310  1.00  0.00     0.058 A 
ATOM     16  I   UNL     1       3.273   3.106   1.128  1.00  0.00    -0.040 I 
BRANCH  13  17
ATOM     17  O   UNL     1       6.084   1.658   0.380  1.00  0.00    -0.507 OA
ATOM     18  H   UNL     1       6.919   1.223   0.144  1.00  0.00     0.293 HD
ENDBRANCH  13  17
ENDBRANCH   9  10
ENDBRANCH   1   9
BRANCH   4  19
ATOM     19  C   UNL     1      -3.532  -0.637   0.110  1.00  0.00     0.066 C 
BRANCH  19  20
ATOM     20  C   UNL     1      -3.714   0.604   0.999  1.00  0.00     0.166 C 
BRANCH  20  21
ATOM     21  C   UNL     1      -3.569   1.907   0.197  1.00  0.00     0.320 C 
ATOM     22  O   UNL     1      -3.140   2.052  -0.935  1.00  0.00    -0.251 OA
BRANCH  21  23
ATOM     23  O   UNL     1      -3.956   2.991   0.916  1.00  0.00    -0.480 OA
ATOM     24  H   UNL     1      -3.826   3.737   0.293  1.00  0.00     0.296 HD
ENDBRANCH  21  23
ENDBRANCH  20  21
BRANCH  20  25
ATOM     25  N   UNL     1      -5.056   0.574   1.632  1.00  0.00    -0.318 NA
ATOM     26  H   UNL     1      -5.193   1.473   2.102  1.00  0.00     0.119 HD
ATOM     27  H   UNL     1      -5.066  -0.134   2.365  1.00  0.00     0.119 HD
ENDBRANCH  20  25
ENDBRANCH  19  20
ENDBRANCH   4  19
TORSDOF 8
