REMARK SMILES CO[C@H]1CCCC[C@@H](c2ccccc2)OC(=O)[C@@H](C)[C@@]2(O)O[C@H]([C@@H](C)[C@H](O)[C@H]2OC)[C@@H](C)/C=C/[C@H]1OC
REMARK SMILES IDX 18 1 19 2 20 3 23 4 24 5 22 6 26 7 28 8 25 9 31 10 32 11
REMARK SMILES IDX 33 12 34 13 35 14 3 15 2 17 1 18 36 19 37 20 27 21 21 23
REMARK SMILES IDX 29 25 30 26 16 27 17 28 15 29 8 30 7 31 6 32 5 33 4 34 9 36
REMARK SMILES IDX 10 37 14 38 11 39 13 40 12 41
REMARK H PARENT 27 22 21 24
REMARK Flexibility Score:   80.900
ROOT
ATOM      1  C   UNL     1      -3.152   0.934   0.609  1.00  0.00     0.158 C 
ATOM      2  C   UNL     1      -4.124   1.737  -0.252  1.00  0.00     0.026 C 
ENDROOT
BRANCH   1   3
ATOM      3  C   UNL     1      -2.564  -0.310  -0.103  1.00  0.00     0.208 C 
ATOM      4  C   UNL     1      -0.726  -1.874   0.156  1.00  0.00     0.134 C 
ATOM      5  C   UNL     1      -1.493  -2.759  -0.861  1.00  0.00     0.047 C 
ATOM      6  O   UNL     1      -1.590  -0.890   0.764  1.00  0.00    -0.343 OA
ATOM      7  C   UNL     1      -2.988  -2.809  -0.512  1.00  0.00     0.154 C 
ATOM      8  C   UNL     1      -3.641  -1.401  -0.414  1.00  0.00     0.207 C 
ATOM      9  C   UNL     1      -0.901  -4.132  -1.173  1.00  0.00     0.013 C 
BRANCH   4  10
ATOM     10  C   UNL     1       0.089  -2.490   1.337  1.00  0.00     0.038 C 
ATOM     11  C   UNL     1      -0.469  -3.751   1.988  1.00  0.00     0.015 C 
BRANCH  10  12
ATOM     12  C   UNL     1       1.543  -2.651   0.945  1.00  0.00    -0.023 C 
ATOM     13  C   UNL     1       2.485  -1.786   1.360  1.00  0.00     0.003 C 
BRANCH  13  14
ATOM     14  C   UNL     1       3.904  -1.649   0.846  1.00  0.00     0.169 C 
BRANCH  14  15
ATOM     15  C   UNL     1       4.056  -0.342  -0.010  1.00  0.00     0.150 CG0
ATOM     16  G   UNL     1       4.074   0.911   0.900  1.00  0.00     0.000 G0
BRANCH  15  17
ATOM     17  O   UNL     1       3.014  -0.174  -0.990  1.00  0.00    -0.378 OA
ATOM     18  C   UNL     1       3.109  -1.063  -2.094  1.00  0.00     0.195 C 
ENDBRANCH  15  17
ENDBRANCH  14  15
BRANCH  14  19
ATOM     19  O   UNL     1       4.283  -2.779   0.045  1.00  0.00    -0.375 OA
ATOM     20  C   UNL     1       4.803  -3.853   0.820  1.00  0.00     0.195 C 
ENDBRANCH  14  19
ENDBRANCH  13  14
ENDBRANCH  10  12
ENDBRANCH   4  10
BRANCH   7  21
ATOM     21  O   UNL     1      -3.694  -3.597  -1.487  1.00  0.00    -0.390 OA
ATOM     22  H   UNL     1      -3.523  -3.204  -2.362  1.00  0.00     0.211 HD
ENDBRANCH   7  21
BRANCH   3  23
ATOM     23  O   UNL     1      -1.968   0.070  -1.350  1.00  0.00    -0.363 OA
ATOM     24  H   UNL     1      -1.397   0.837  -1.152  1.00  0.00     0.214 HD
ENDBRANCH   3  23
BRANCH   8  25
ATOM     25  O   UNL     1      -4.665  -1.407   0.605  1.00  0.00    -0.373 OA
ATOM     26  C   UNL     1      -5.810  -2.177   0.260  1.00  0.00     0.195 C 
ENDBRANCH   8  25
ENDBRANCH   1   3
BRANCH   1  27
ATOM     27  C   UNL     1      -2.062   1.869   1.107  1.00  0.00     0.314 C 
ATOM     28  O   UNL     1      -2.107   2.445   2.187  1.00  0.00    -0.252 OA
BRANCH  27  29
ATOM     29  O   UNL     1      -1.080   2.034   0.177  1.00  0.00    -0.457 OA
BRANCH  29  30
ATOM     30  C   UNL     1       0.012   2.912   0.530  1.00  0.00     0.206 C 
BRANCH  30  31
ATOM     31  C   UNL     1       1.314   2.208   0.104  1.00  0.00     0.050 C 
BRANCH  31  32
ATOM     32  C   UNL     1       2.579   2.971   0.514  1.00  0.00     0.004 C 
BRANCH  32  33
ATOM     33  C   UNL     1       3.890   2.247   0.162  1.00  0.00     0.003 C 
BRANCH  33  34
ATOM     34  C   UNL     1       4.074   0.911   0.900  1.00  0.00     0.035 CG0
ATOM     35  G   UNL     1       4.056  -0.342  -0.010  1.00  0.00     0.000 G0
ENDBRANCH  33  34
ENDBRANCH  32  33
ENDBRANCH  31  32
ENDBRANCH  30  31
BRANCH  30  36
ATOM     36  C   UNL     1      -0.239   4.237  -0.161  1.00  0.00    -0.008 A 
ATOM     37  C   UNL     1      -0.529   5.377   0.605  1.00  0.00     0.007 A 
ATOM     38  C   UNL     1      -0.227   4.355  -1.560  1.00  0.00     0.007 A 
ATOM     39  C   UNL     1      -0.777   6.605  -0.010  1.00  0.00     0.000 A 
ATOM     40  C   UNL     1      -0.474   5.584  -2.174  1.00  0.00     0.000 A 
ATOM     41  C   UNL     1      -0.746   6.709  -1.399  1.00  0.00     0.000 A 
ENDBRANCH  30  36
ENDBRANCH  29  30
ENDBRANCH  27  29
ENDBRANCH   1  27
TORSDOF 6
