REMARK SMILES C[C@H](CCC(=O)O)[C@H]1CC[C@H]2[C@@H]3[C@H](O)C[C@@H]4C[C@H](O)CC[C@]4(C)[C@H]3CC[C@]12C
REMARK SMILES IDX 3 1 2 2 1 3 8 4 9 5 27 6 10 7 11 8 26 9 12 10 25 11 24 12
REMARK SMILES IDX 13 13 22 14 15 15 16 16 21 17 17 18 20 19 18 20 28 21 23 22
REMARK SMILES IDX 14 23 19 25 4 27 5 28 6 29 7 30
REMARK H PARENT 14 24 19 26 7 31
ROOT
ATOM      1  C   UNL     1       4.771   0.105   0.565  1.00  0.00     0.015 C 
ENDROOT
BRANCH   1   2
ATOM      2  C   UNL     1       4.020   0.278  -0.773  1.00  0.00    -0.010 C 
ATOM      3  C   UNL     1       4.972  -0.047  -1.938  1.00  0.00     0.008 C 
BRANCH   2   4
ATOM      4  C   UNL     1       2.728  -0.572  -0.927  1.00  0.00    -0.002 C 
ATOM      5  C   UNL     1       2.751  -1.998  -0.327  1.00  0.00     0.005 C 
ATOM      6  C   UNL     1       1.390   0.022  -0.396  1.00  0.00    -0.026 C 
ATOM      7  C   UNL     1       1.281  -2.361  -0.032  1.00  0.00     0.005 C 
ATOM      8  C   UNL     1       0.474  -1.202  -0.616  1.00  0.00     0.001 C 
ATOM      9  C   UNL     1       0.821   1.163  -1.250  1.00  0.00     0.007 C 
ATOM     10  C   UNL     1      -0.968  -0.992  -0.130  1.00  0.00     0.025 C 
ATOM     11  C   UNL     1      -0.622   1.500  -0.847  1.00  0.00     0.005 C 
ATOM     12  C   UNL     1      -1.588   0.280  -0.792  1.00  0.00     0.001 C 
ATOM     13  C   UNL     1      -1.871  -2.230  -0.362  1.00  0.00     0.118 C 
ATOM     14  C   UNL     1      -2.999   0.626  -0.149  1.00  0.00    -0.026 C 
ATOM     15  C   UNL     1      -3.319  -1.880  -0.693  1.00  0.00     0.036 C 
ATOM     16  C   UNL     1      -3.851  -0.676   0.086  1.00  0.00     0.000 C 
ATOM     17  C   UNL     1      -3.768   1.588  -1.095  1.00  0.00     0.010 C 
ATOM     18  C   UNL     1      -5.349  -0.516  -0.258  1.00  0.00     0.036 C 
ATOM     19  C   UNL     1      -5.166   1.980  -0.606  1.00  0.00     0.032 C 
ATOM     20  C   UNL     1      -5.905   0.851   0.111  1.00  0.00     0.114 C 
ATOM     21  C   UNL     1       1.493   0.464   1.081  1.00  0.00     0.012 C 
ATOM     22  C   UNL     1      -2.815   1.334   1.223  1.00  0.00     0.012 C 
BRANCH  13  23
ATOM     23  O   UNL     1      -1.390  -3.043  -1.432  1.00  0.00    -0.393 OA
ATOM     24  H   UNL     1      -1.944  -3.841  -1.469  1.00  0.00     0.210 HD
ENDBRANCH  13  23
BRANCH  20  25
ATOM     25  O   UNL     1      -7.293   0.907  -0.209  1.00  0.00    -0.393 OA
ATOM     26  H   UNL     1      -7.386   0.768  -1.167  1.00  0.00     0.210 HD
ENDBRANCH  20  25
ENDBRANCH   2   4
ENDBRANCH   1   2
BRANCH   1  27
ATOM     27  C   UNL     1       5.802   1.206   0.817  1.00  0.00     0.123 C 
BRANCH  27  28
ATOM     28  C   UNL     1       6.377   1.084   2.199  1.00  0.00     0.303 C 
ATOM     29  O   UNL     1       6.063   1.746   3.173  1.00  0.00    -0.252 OA
BRANCH  28  30
ATOM     30  O   UNL     1       7.311   0.119   2.292  1.00  0.00    -0.481 OA
ATOM     31  H   UNL     1       7.587   0.145   3.233  1.00  0.00     0.296 HD
ENDBRANCH  28  30
ENDBRANCH  27  28
ENDBRANCH   1  27
TORSDOF 7
