REMARK SMILES CC(C)c1onc(-c2c(Cl)cccc2Cl)c1COc1ccc(/C=C/c2cccc(C(=O)O)c2)c(Cl)c1
REMARK SMILES IDX 19 1 36 2 34 3 22 4 21 5 20 6 35 7 18 8 17 9 16 10 4 11 5 12
REMARK SMILES IDX 7 13 6 14 2 15 1 16 3 17 8 18 14 19 9 20 13 21 11 22 12 23
REMARK SMILES IDX 15 24 10 25 23 26 24 27 25 28 33 29 26 30 29 31 27 32 28 33
REMARK SMILES IDX 30 34 31 35 32 36
REMARK H PARENT 32 37
ROOT
ATOM      1  C   UNL     1      -1.175   0.185  -1.884  1.00  0.00     0.121 A 
ATOM      2  C   UNL     1      -0.941  -1.164  -1.628  1.00  0.00     0.067 A 
ATOM      3  C   UNL     1       0.311  -1.577  -1.156  1.00  0.00     0.051 A 
ATOM      4  C   UNL     1       1.346  -0.648  -0.954  1.00  0.00    -0.007 A 
ATOM      5  C   UNL     1       1.110   0.695  -1.286  1.00  0.00     0.013 A 
ATOM      6  C   UNL     1      -0.141   1.107  -1.749  1.00  0.00     0.047 A 
ATOM      7  Cl  UNL     1       0.508  -3.261  -0.805  1.00  0.00    -0.084 Cl
ENDROOT
BRANCH   1   8
ATOM      8  O   UNL     1      -2.370   0.672  -2.334  1.00  0.00    -0.489 OA
BRANCH   8   9
ATOM      9  C   UNL     1      -3.511   0.294  -1.549  1.00  0.00     0.271 C 
BRANCH   9  10
ATOM     10  C   UNL     1      -3.716   1.170  -0.361  1.00  0.00     0.061 A 
ATOM     11  C   UNL     1      -4.329   2.409  -0.308  1.00  0.00     0.146 A 
ATOM     12  O   UNL     1      -4.334   2.850   0.978  1.00  0.00    -0.360 OA
ATOM     13  C   UNL     1      -3.333   0.922   0.997  1.00  0.00     0.123 A 
ATOM     14  N   UNL     1      -3.725   1.926   1.793  1.00  0.00    -0.079 NA
BRANCH  11  15
ATOM     15  C   UNL     1      -4.976   3.332  -1.289  1.00  0.00     0.053 C 
ATOM     16  C   UNL     1      -6.333   2.793  -1.740  1.00  0.00     0.016 C 
ATOM     17  C   UNL     1      -4.075   3.624  -2.487  1.00  0.00     0.016 C 
ENDBRANCH  11  15
BRANCH  13  18
ATOM     18  C   UNL     1      -2.626  -0.224   1.556  1.00  0.00     0.041 A 
ATOM     19  C   UNL     1      -3.251  -1.480   1.663  1.00  0.00     0.052 A 
ATOM     20  C   UNL     1      -1.299  -0.101   2.010  1.00  0.00     0.052 A 
ATOM     21  C   UNL     1      -2.559  -2.583   2.178  1.00  0.00     0.021 A 
ATOM     22  C   UNL     1      -0.613  -1.209   2.523  1.00  0.00     0.021 A 
ATOM     23  C   UNL     1      -1.239  -2.449   2.602  1.00  0.00     0.003 A 
ATOM     24  Cl  UNL     1      -4.896  -1.745   1.186  1.00  0.00    -0.084 Cl
ATOM     25  Cl  UNL     1      -0.425   1.394   1.953  1.00  0.00    -0.084 Cl
ENDBRANCH  13  18
ENDBRANCH   9  10
ENDBRANCH   8   9
ENDBRANCH   1   8
BRANCH   4  26
ATOM     26  C   UNL     1       2.667  -1.046  -0.439  1.00  0.00     0.010 C 
ATOM     27  C   UNL     1       3.262  -0.415   0.587  1.00  0.00     0.009 C 
BRANCH  27  28
ATOM     28  C   UNL     1       4.563  -0.799   1.153  1.00  0.00    -0.025 A 
ATOM     29  C   UNL     1       5.601  -1.323   0.370  1.00  0.00     0.023 A 
ATOM     30  C   UNL     1       4.793  -0.582   2.519  1.00  0.00     0.008 A 
ATOM     31  C   UNL     1       6.837  -1.651   0.947  1.00  0.00     0.060 A 
ATOM     32  C   UNL     1       6.022  -0.907   3.099  1.00  0.00     0.002 A 
ATOM     33  C   UNL     1       7.043  -1.443   2.316  1.00  0.00     0.016 A 
BRANCH  31  34
ATOM     34  C   UNL     1       7.893  -2.208   0.069  1.00  0.00     0.335 C 
ATOM     35  O   UNL     1       7.791  -2.420  -1.125  1.00  0.00    -0.246 OA
BRANCH  34  36
ATOM     36  O   UNL     1       9.034  -2.477   0.729  1.00  0.00    -0.478 OA
ATOM     37  H   UNL     1       9.628  -2.831   0.034  1.00  0.00     0.297 HD
ENDBRANCH  34  36
ENDBRANCH  31  34
ENDBRANCH  27  28
ENDBRANCH   4  26
TORSDOF 9
