REMARK SMILES COc1ccccc1[C@H](Cn1c(=O)n(C(C)(C)C(N)=O)c(=O)c2c(C)c(-c3ncco3)sc21)OC1CCOCC1
REMARK SMILES IDX 10 1 11 2 24 3 26 4 23 5 32 6 33 7 21 8 22 9 14 10 12 11
REMARK SMILES IDX 13 12 25 13 27 14 28 15 31 16 29 17 30 18 15 19 16 20 17 21
REMARK SMILES IDX 18 22 20 23 19 24 9 27 8 28 7 29 3 30 6 31 4 32 5 33 2 34
REMARK SMILES IDX 1 35 34 36 35 37 36 38 40 39 37 40 39 41 38 42
REMARK H PARENT 19 25 19 26
ROOT
ATOM      1  C   UNL     1      -0.067   1.223   1.988  1.00  0.00     0.165 C 
ENDROOT
BRANCH   1   2
ATOM      2  N   UNL     1       0.961   0.502   1.225  1.00  0.00    -0.281 N 
ATOM      3  C   UNL     1       3.514   1.215  -1.298  1.00  0.00    -0.013 A 
ATOM      4  C   UNL     1       3.104   2.543  -1.180  1.00  0.00     0.095 A 
ATOM      5  C   UNL     1       2.757   0.361  -0.406  1.00  0.00     0.079 A 
ATOM      6  S   UNL     1       1.817   2.708  -0.058  1.00  0.00    -0.111 S 
ATOM      7  C   UNL     1       1.811   1.060   0.287  1.00  0.00     0.113 A 
ATOM      8  C   UNL     1       2.866  -1.065  -0.167  1.00  0.00     0.266 C 
ATOM      9  O   UNL     1       3.859  -1.690  -0.521  1.00  0.00    -0.268 OA
ATOM     10  N   UNL     1       1.789  -1.630   0.516  1.00  0.00    -0.245 N 
ATOM     11  C   UNL     1       1.082  -0.873   1.454  1.00  0.00     0.333 C 
ATOM     12  O   UNL     1       0.637  -1.381   2.489  1.00  0.00    -0.247 OA
ATOM     13  C   UNL     1       4.596   0.733  -2.218  1.00  0.00     0.047 C 
BRANCH   4  14
ATOM     14  C   UNL     1       3.619   3.713  -1.853  1.00  0.00     0.236 A 
ATOM     15  N   UNL     1       4.674   3.703  -2.653  1.00  0.00    -0.217 NA
ATOM     16  O   UNL     1       3.066   4.971  -1.721  1.00  0.00    -0.444 OA
ATOM     17  C   UNL     1       4.817   5.004  -3.062  1.00  0.00     0.154 A 
ATOM     18  C   UNL     1       3.840   5.776  -2.496  1.00  0.00     0.218 A 
ENDBRANCH   4  14
BRANCH  10  19
ATOM     19  C   UNL     1       1.648  -3.127   0.496  1.00  0.00     0.125 C 
ATOM     20  C   UNL     1       0.206  -3.592   0.838  1.00  0.00     0.046 C 
ATOM     21  C   UNL     1       1.922  -3.711  -0.917  1.00  0.00     0.046 C 
BRANCH  19  22
ATOM     22  C   UNL     1       2.613  -3.785   1.518  1.00  0.00     0.243 C 
ATOM     23  O   UNL     1       3.227  -4.829   1.302  1.00  0.00    -0.273 OA
ATOM     24  N   UNL     1       2.640  -3.255   2.776  1.00  0.00    -0.368 N 
ATOM     25  H   UNL     1       1.998  -2.521   3.067  1.00  0.00     0.159 HD
ATOM     26  H   UNL     1       3.226  -3.695   3.471  1.00  0.00     0.159 HD
ENDBRANCH  19  22
ENDBRANCH  10  19
ENDBRANCH   1   2
BRANCH   1  27
ATOM     27  C   UNL     1      -1.511   1.087   1.425  1.00  0.00     0.172 C 
BRANCH  27  28
ATOM     28  C   UNL     1      -1.702   1.796   0.088  1.00  0.00     0.025 A 
ATOM     29  C   UNL     1      -2.160   3.130   0.118  1.00  0.00     0.010 A 
ATOM     30  C   UNL     1      -1.425   1.204  -1.161  1.00  0.00     0.124 A 
ATOM     31  C   UNL     1      -2.340   3.858  -1.056  1.00  0.00     0.001 A 
ATOM     32  C   UNL     1      -1.602   1.950  -2.334  1.00  0.00     0.047 A 
ATOM     33  C   UNL     1      -2.059   3.268  -2.281  1.00  0.00     0.004 A 
BRANCH  30  34
ATOM     34  O   UNL     1      -0.958  -0.084  -1.149  1.00  0.00    -0.496 OA
ATOM     35  C   UNL     1      -0.912  -0.779  -2.387  1.00  0.00     0.278 C 
ENDBRANCH  30  34
ENDBRANCH  27  28
BRANCH  27  36
ATOM     36  O   UNL     1      -1.893  -0.295   1.379  1.00  0.00    -0.368 OA
BRANCH  36  37
ATOM     37  C   UNL     1      -3.186  -0.586   1.908  1.00  0.00     0.123 C 
ATOM     38  C   UNL     1      -4.305  -0.110   0.977  1.00  0.00     0.060 C 
ATOM     39  C   UNL     1      -3.283  -2.095   2.100  1.00  0.00     0.060 C 
ATOM     40  C   UNL     1      -5.563  -0.959   1.117  1.00  0.00     0.163 C 
ATOM     41  C   UNL     1      -4.638  -2.477   2.684  1.00  0.00     0.163 C 
ATOM     42  O   UNL     1      -5.651  -1.499   2.431  1.00  0.00    -0.381 OA
ENDBRANCH  36  37
ENDBRANCH  27  36
ENDBRANCH   1  27
TORSDOF 9
