REMARK SMILES CC(C)OC(=O)C1=CN(C(=O)c2ccc(F)c(F)c2)CC(C)(C)c2c1[nH]c1ccccc21
REMARK SMILES IDX 8 1 7 2 9 3 10 4 11 5 12 6 17 7 15 8 19 9 14 10 13 11 18 12
REMARK SMILES IDX 16 13 20 14 5 16 6 17 4 18 2 19 1 20 3 21 25 22 24 23 26 24
REMARK SMILES IDX 32 25 27 26 31 27 28 28 30 29 29 30 21 32 22 33 23 34
REMARK H PARENT 26 31
REMARK Flexibility Score:   48.900
ROOT
ATOM      1  C   UNL     1      40.589   1.067 -13.067  1.00  0.00     0.107 C 
ATOM      2  C   UNL     1      39.568   1.640 -13.766  1.00  0.00     0.100 C 
ENDROOT
BRANCH   1   3
ATOM      3  N   UNL     1      41.321   1.491 -11.984  1.00  0.00    -0.313 N 
BRANCH   3   4
ATOM      4  C   UNL     1      42.277   0.767 -11.336  1.00  0.00     0.257 C 
ATOM      5  O   UNL     1      42.870   1.185 -10.369  1.00  0.00    -0.269 OA
BRANCH   4   6
ATOM      6  C   UNL     1      42.802  -0.451 -11.949  1.00  0.00     0.043 A 
ATOM      7  C   UNL     1      43.968  -2.489 -11.827  1.00  0.00     0.159 A 
ATOM      8  C   UNL     1      44.093  -2.540 -13.224  1.00  0.00     0.158 A 
ATOM      9  C   UNL     1      43.347  -1.430 -11.150  1.00  0.00     0.056 A 
ATOM     10  C   UNL     1      43.616  -1.527 -13.990  1.00  0.00     0.043 A 
ATOM     11  C   UNL     1      42.981  -0.511 -13.348  1.00  0.00     0.017 A 
ATOM     12  F   UNL     1      44.454  -3.471 -11.149  1.00  0.00    -0.204 F 
ATOM     13  F   UNL     1      44.656  -3.511 -13.894  1.00  0.00    -0.204 F 
ENDBRANCH   4   6
ENDBRANCH   3   4
BRANCH   3  14
ATOM     14  C   UNL     1      41.047   2.788 -11.369  1.00  0.00     0.136 CG0
ATOM     15  G   UNL     1      41.082   4.132 -12.045  1.00  0.00     0.000 G0
ENDBRANCH   3  14
ENDBRANCH   1   3
BRANCH   2  16
ATOM     16  C   UNL     1      38.924   0.864 -14.874  1.00  0.00     0.342 C 
ATOM     17  O   UNL     1      38.383   1.188 -15.931  1.00  0.00    -0.246 OA
BRANCH  16  18
ATOM     18  O   UNL     1      38.591  -0.375 -14.333  1.00  0.00    -0.459 OA
BRANCH  18  19
ATOM     19  C   UNL     1      38.110  -1.482 -15.127  1.00  0.00     0.170 C 
ATOM     20  C   UNL     1      39.249  -2.313 -15.713  1.00  0.00     0.052 C 
ATOM     21  C   UNL     1      37.285  -2.372 -14.206  1.00  0.00     0.052 C 
ENDBRANCH  18  19
ENDBRANCH  16  18
ENDBRANCH   2  16
BRANCH   2  22
ATOM     22  C   UNL     1      39.439   2.974 -13.786  1.00  0.00     0.059 A 
ATOM     23  C   UNL     1      40.292   4.046 -13.329  1.00  0.00    -0.007 A 
ATOM     24  N   UNL     1      39.085   3.502 -15.065  1.00  0.00    -0.354 N 
ATOM     25  C   UNL     1      40.098   5.213 -14.142  1.00  0.00     0.004 A 
ATOM     26  C   UNL     1      39.314   4.836 -15.227  1.00  0.00     0.046 A 
ATOM     27  C   UNL     1      40.505   6.600 -14.073  1.00  0.00     0.010 A 
ATOM     28  C   UNL     1      38.942   5.760 -16.262  1.00  0.00     0.027 A 
ATOM     29  C   UNL     1      40.138   7.518 -15.053  1.00  0.00     0.001 A 
ATOM     30  C   UNL     1      39.363   7.089 -16.174  1.00  0.00     0.002 A 
ATOM     31  H   UNL     1      38.685   2.916 -15.812  1.00  0.00     0.167 HD
BRANCH  23  32
ATOM     32  C   UNL     1      41.082   4.132 -12.045  1.00  0.00     0.010 CG0
ATOM     33  C   UNL     1      40.443   5.215 -11.127  1.00  0.00     0.018 C 
ATOM     34  C   UNL     1      42.609   4.373 -12.128  1.00  0.00     0.018 C 
ATOM     35  G   UNL     1      41.047   2.788 -11.369  1.00  0.00     0.000 G0
ENDBRANCH  23  32
ENDBRANCH   2  22
TORSDOF 5
