REMARK SMILES CC(=O)c1c(O)c(C)c(O)c2c1OC1=CC(=O)/C(=C(/C)Nc3cc(-c4nnn(C(C)C)n4)ccc3O)C(=O)[C@@]12C
REMARK SMILES IDX 22 1 23 2 24 3 33 4 34 5 35 6 21 7 19 9 4 10 5 11 12 12 7 13
REMARK SMILES IDX 11 14 13 15 9 16 39 17 14 18 37 19 15 20 18 21 38 22 16 23
REMARK SMILES IDX 17 24 8 25 40 26 20 27 2 28 3 29 1 30 6 31 10 33 36 35 25 37
REMARK SMILES IDX 32 38 26 39 28 40 27 41 29 42 30 43 31 44
REMARK H PARENT 21 8 6 32 10 34 36 36
ROOT
ATOM      1  C   UNL     1       2.679  -0.805  -1.619  1.00  0.00     0.081 A 
ATOM      2  C   UNL     1       3.971  -0.421  -1.223  1.00  0.00     0.042 A 
ATOM      3  C   UNL     1       5.119  -0.961  -1.825  1.00  0.00     0.025 A 
ATOM      4  C   UNL     1       4.963  -1.899  -2.854  1.00  0.00     0.016 A 
ATOM      5  C   UNL     1       3.688  -2.279  -3.279  1.00  0.00     0.049 A 
ATOM      6  C   UNL     1       2.559  -1.730  -2.669  1.00  0.00     0.139 A 
ENDROOT
BRANCH   1   7
ATOM      7  N   UNL     1       1.590  -0.217  -0.945  1.00  0.00    -0.355 N 
ATOM      8  H   UNL     1       1.629   0.808  -0.937  1.00  0.00     0.166 HD
BRANCH   7   9
ATOM      9  C   UNL     1       0.368  -0.771  -0.564  1.00  0.00     0.027 C 
ATOM     10  C   UNL     1      -6.526   1.194   0.353  1.00  0.00     0.103 A 
ATOM     11  C   UNL     1      -7.244   0.015   0.612  1.00  0.00     0.136 A 
ATOM     12  C   UNL     1      -5.145   1.134   0.426  1.00  0.00     0.149 A 
ATOM     13  C   UNL     1      -6.584  -1.192   0.958  1.00  0.00     0.034 A 
ATOM     14  C   UNL     1      -4.466  -0.046   0.753  1.00  0.00     0.059 A 
ATOM     15  O   UNL     1      -4.271   2.174   0.190  1.00  0.00    -0.459 OA
ATOM     16  C   UNL     1      -5.178  -1.208   0.993  1.00  0.00     0.130 A 
ATOM     17  C   UNL     1      -2.997   0.260   0.849  1.00  0.00     0.121 C 
ATOM     18  C   UNL     1      -2.987   1.638   0.233  1.00  0.00     0.126 C 
ATOM     19  C   UNL     1      -2.068  -0.632   0.042  1.00  0.00     0.186 C 
ATOM     20  C   UNL     1      -1.949   2.222  -0.368  1.00  0.00     0.096 C 
ATOM     21  C   UNL     1      -0.746  -0.020  -0.356  1.00  0.00     0.085 C 
ATOM     22  O   UNL     1      -2.369  -1.800  -0.210  1.00  0.00    -0.292 OA
ATOM     23  C   UNL     1      -0.678   1.479  -0.500  1.00  0.00     0.194 C 
ATOM     24  O   UNL     1       0.356   2.098  -0.730  1.00  0.00    -0.289 OA
ATOM     25  C   UNL     1      -7.357  -2.453   1.243  1.00  0.00     0.052 C 
ATOM     26  C   UNL     1      -2.548   0.285   2.316  1.00  0.00     0.034 C 
ATOM     27  C   UNL     1       0.374  -2.263  -0.273  1.00  0.00     0.065 C 
BRANCH  10  28
ATOM     28  C   UNL     1      -7.180   2.467  -0.025  1.00  0.00     0.167 C 
ATOM     29  O   UNL     1      -6.728   3.134  -0.954  1.00  0.00    -0.294 OA
ATOM     30  C   UNL     1      -8.385   2.919   0.758  1.00  0.00     0.094 C 
ENDBRANCH  10  28
BRANCH  11  31
ATOM     31  O   UNL     1      -8.610   0.052   0.488  1.00  0.00    -0.507 OA
ATOM     32  H   UNL     1      -8.963  -0.850   0.425  1.00  0.00     0.293 HD
ENDBRANCH  11  31
BRANCH  16  33
ATOM     33  O   UNL     1      -4.530  -2.377   1.262  1.00  0.00    -0.507 OA
ATOM     34  H   UNL     1      -3.721  -2.420   0.705  1.00  0.00     0.293 HD
ENDBRANCH  16  33
ENDBRANCH   7   9
ENDBRANCH   1   7
BRANCH   6  35
ATOM     35  O   UNL     1       1.319  -2.064  -3.147  1.00  0.00    -0.506 OA
ATOM     36  H   UNL     1       1.420  -2.661  -3.905  1.00  0.00     0.293 HD
ENDBRANCH   6  35
BRANCH   3  37
ATOM     37  C   UNL     1       6.450  -0.558  -1.391  1.00  0.00     0.205 A 
ATOM     38  N   UNL     1       6.701   0.336  -0.418  1.00  0.00    -0.131 NA
ATOM     39  N   UNL     1       7.604  -1.065  -1.947  1.00  0.00    -0.108 NA
ATOM     40  N   UNL     1       8.048   0.334  -0.430  1.00  0.00    -0.161 N 
ATOM     41  N   UNL     1       8.620  -0.487  -1.324  1.00  0.00    -0.047 NA
BRANCH  40  42
ATOM     42  C   UNL     1       8.842   1.163   0.461  1.00  0.00     0.124 C 
ATOM     43  C   UNL     1       8.588   2.649   0.213  1.00  0.00     0.035 C 
ATOM     44  C   UNL     1       8.600   0.796   1.924  1.00  0.00     0.035 C 
ENDBRANCH  40  42
ENDBRANCH   3  37
TORSDOF 8
