REMARK SMILES COc1cc(OC)c2c(c1Cl)O[C@]1(C2=O)C(O)=C(C(CC(=O)NCc2ccc(-c3nccs3)cc2)c2ccc(SC)cc2)C(=O)C[C@H]1C
REMARK SMILES IDX 20 1 19 2 18 3 3 4 4 5 10 6 5 7 9 8 8 9 12 10 14 11 13 12
REMARK SMILES IDX 15 13 16 14 47 15 46 16 44 17 45 18 11 19 48 20 2 21 1 22
REMARK SMILES IDX 6 23 7 24 17 25 36 27 37 28 43 29 38 30 42 31 39 32 40 33
REMARK SMILES IDX 41 34 21 35 22 36 23 37 24 39 25 40 26 41 35 42 27 43 34 44
REMARK SMILES IDX 28 45 29 46 30 47 33 48 31 49 32 50
REMARK H PARENT 17 26 23 38
ROOT
ATOM      1  C   UNL     1       0.836   0.018  -2.719  1.00  0.00     0.113 C 
ENDROOT
BRANCH   1   2
ATOM      2  C   UNL     1      -0.051   0.728  -1.667  1.00  0.00     0.066 C 
BRANCH   2   3
ATOM      3  C   UNL     1      -0.764  -0.192  -0.681  1.00  0.00     0.045 C 
ATOM      4  C   UNL     1      -7.423  -1.941   0.125  1.00  0.00     0.144 A 
ATOM      5  C   UNL     1      -7.344  -1.034   1.205  1.00  0.00     0.095 A 
ATOM      6  C   UNL     1      -6.244  -2.355  -0.523  1.00  0.00     0.126 A 
ATOM      7  C   UNL     1      -6.110  -0.535   1.644  1.00  0.00     0.137 A 
ATOM      8  C   UNL     1      -5.028  -1.860  -0.081  1.00  0.00     0.158 A 
ATOM      9  C   UNL     1      -4.978  -0.971   0.974  1.00  0.00     0.108 A 
ATOM     10  O   UNL     1      -3.810  -2.186  -0.634  1.00  0.00    -0.468 OA
ATOM     11  C   UNL     1      -3.577  -0.661   1.163  1.00  0.00     0.222 C 
ATOM     12  C   UNL     1      -2.797  -1.476   0.134  1.00  0.00     0.231 C 
ATOM     13  O   UNL     1      -3.128   0.104   1.997  1.00  0.00    -0.289 OA
ATOM     14  C   UNL     1      -2.064  -0.533  -0.805  1.00  0.00     0.152 C 
ATOM     15  C   UNL     1      -1.822  -2.488   0.757  1.00  0.00     0.054 C 
ATOM     16  C   UNL     1      -0.640  -1.763   1.399  1.00  0.00     0.089 C 
ATOM     17  C   UNL     1       0.026  -0.781   0.457  1.00  0.00     0.163 C 
ATOM     18  O   UNL     1       1.204  -0.477   0.640  1.00  0.00    -0.294 OA
ATOM     19  Cl  UNL     1      -6.283  -3.454  -1.855  1.00  0.00    -0.076 Cl
ATOM     20  C   UNL     1      -2.477  -3.443   1.759  1.00  0.00     0.013 C 
BRANCH   4  21
ATOM     21  O   UNL     1      -8.596  -2.464  -0.357  1.00  0.00    -0.495 OA
ATOM     22  C   UNL     1      -9.812  -2.090   0.278  1.00  0.00     0.278 C 
ENDBRANCH   4  21
BRANCH   7  23
ATOM     23  O   UNL     1      -5.928   0.338   2.672  1.00  0.00    -0.496 OA
ATOM     24  C   UNL     1      -7.078   0.811   3.361  1.00  0.00     0.278 C 
ENDBRANCH   7  23
BRANCH  14  25
ATOM     25  O   UNL     1      -2.792  -0.086  -1.905  1.00  0.00    -0.507 OA
ATOM     26  H   UNL     1      -3.489  -0.749  -2.085  1.00  0.00     0.293 HD
ENDBRANCH  14  25
ENDBRANCH   2   3
BRANCH   2  27
ATOM     27  C   UNL     1       0.540   1.980  -1.013  1.00  0.00    -0.040 A 
ATOM     28  C   UNL     1      -0.316   3.053  -0.706  1.00  0.00     0.005 A 
ATOM     29  C   UNL     1       1.893   2.108  -0.677  1.00  0.00     0.005 A 
ATOM     30  C   UNL     1       0.171   4.223  -0.114  1.00  0.00     0.015 A 
ATOM     31  C   UNL     1       2.381   3.277  -0.082  1.00  0.00     0.015 A 
ATOM     32  C   UNL     1       1.528   4.348   0.186  1.00  0.00     0.007 A 
BRANCH  32  33
ATOM     33  S   UNL     1       2.191   5.815   0.953  1.00  0.00    -0.130 SA
ATOM     34  C   UNL     1       1.642   7.068  -0.236  1.00  0.00     0.091 C 
ENDBRANCH  32  33
ENDBRANCH   2  27
ENDBRANCH   1   2
BRANCH   1  35
ATOM     35  C   UNL     1       1.550  -1.232  -2.250  1.00  0.00     0.221 C 
ATOM     36  O   UNL     1       0.951  -2.285  -2.043  1.00  0.00    -0.275 OA
ATOM     37  N   UNL     1       2.904  -1.092  -2.092  1.00  0.00    -0.352 N 
ATOM     38  H   UNL     1       3.362  -0.224  -2.336  1.00  0.00     0.163 HD
BRANCH  37  39
ATOM     39  C   UNL     1       3.706  -2.147  -1.523  1.00  0.00     0.151 C 
BRANCH  39  40
ATOM     40  C   UNL     1       4.991  -1.589  -0.973  1.00  0.00    -0.029 A 
ATOM     41  C   UNL     1       6.202  -1.759  -1.651  1.00  0.00     0.006 A 
ATOM     42  C   UNL     1       4.982  -0.849   0.215  1.00  0.00     0.006 A 
ATOM     43  C   UNL     1       7.387  -1.210  -1.143  1.00  0.00     0.011 A 
ATOM     44  C   UNL     1       6.166  -0.301   0.718  1.00  0.00     0.011 A 
ATOM     45  C   UNL     1       7.392  -0.473   0.052  1.00  0.00     0.010 A 
BRANCH  45  46
ATOM     46  C   UNL     1       8.609   0.134   0.635  1.00  0.00     0.123 A 
ATOM     47  N   UNL     1       8.601   0.927   1.693  1.00  0.00    -0.245 NA
ATOM     48  S   UNL     1      10.185  -0.153  -0.016  1.00  0.00    -0.122 S 
ATOM     49  C   UNL     1       9.881   1.333   2.007  1.00  0.00     0.123 A 
ATOM     50  C   UNL     1      10.873   0.848   1.188  1.00  0.00     0.087 A 
ENDBRANCH  45  46
ENDBRANCH  39  40
ENDBRANCH  37  39
ENDBRANCH   1  35
TORSDOF 11
