REMARK SMILES COc1cc(OC)c2c(c1Cl)O[C@]1(C2=O)C(O)=C(C(CC(=O)NCc2nc(-c3ccc(N(C)C)cc3)no2)c2ccc(SC)cc2)C(=O)C[C@H]1C
REMARK SMILES IDX 21 1 22 2 23 3 20 5 19 6 18 7 3 8 4 9 10 10 5 11 9 12 8 13
REMARK SMILES IDX 12 14 14 15 13 16 15 17 16 18 50 19 49 20 47 21 48 22 11 23
REMARK SMILES IDX 51 24 2 25 1 26 6 27 7 28 17 29 39 31 40 32 46 33 41 34
REMARK SMILES IDX 45 35 42 36 43 37 44 38 24 39 25 40 26 41 38 42 27 43 37 44
REMARK SMILES IDX 28 45 29 46 36 47 30 48 35 49 31 50 32 51 33 52 34 53
REMARK H PARENT 23 4 17 30
ROOT
ATOM      1  C   UNL     1       1.478   2.826  -2.756  1.00  0.00     0.221 C 
ATOM      2  O   UNL     1       1.637   3.917  -3.296  1.00  0.00    -0.275 OA
ATOM      3  N   UNL     1       2.479   1.898  -2.653  1.00  0.00    -0.347 N 
ATOM      4  H   UNL     1       2.337   1.035  -2.135  1.00  0.00     0.164 HD
ENDROOT
BRANCH   1   5
ATOM      5  C   UNL     1       0.154   2.411  -2.152  1.00  0.00     0.113 C 
BRANCH   5   6
ATOM      6  C   UNL     1       0.127   2.691  -0.634  1.00  0.00     0.066 C 
BRANCH   6   7
ATOM      7  C   UNL     1      -1.266   2.884  -0.029  1.00  0.00     0.045 C 
ATOM      8  C   UNL     1      -6.818  -0.453   2.140  1.00  0.00     0.144 A 
ATOM      9  C   UNL     1      -7.534  -0.185   0.952  1.00  0.00     0.095 A 
ATOM     10  C   UNL     1      -5.558   0.143   2.344  1.00  0.00     0.126 A 
ATOM     11  C   UNL     1      -7.007   0.657  -0.037  1.00  0.00     0.137 A 
ATOM     12  C   UNL     1      -5.049   0.979   1.365  1.00  0.00     0.158 A 
ATOM     13  C   UNL     1      -5.766   1.219   0.212  1.00  0.00     0.108 A 
ATOM     14  O   UNL     1      -3.828   1.606   1.428  1.00  0.00    -0.468 OA
ATOM     15  C   UNL     1      -4.929   2.085  -0.586  1.00  0.00     0.222 C 
ATOM     16  C   UNL     1      -3.744   2.502   0.277  1.00  0.00     0.231 C 
ATOM     17  O   UNL     1      -5.091   2.345  -1.767  1.00  0.00    -0.289 OA
ATOM     18  C   UNL     1      -2.403   2.257  -0.401  1.00  0.00     0.152 C 
ATOM     19  C   UNL     1      -3.868   3.946   0.794  1.00  0.00     0.054 C 
ATOM     20  C   UNL     1      -2.677   4.239   1.710  1.00  0.00     0.089 C 
ATOM     21  C   UNL     1      -1.338   3.905   1.079  1.00  0.00     0.163 C 
ATOM     22  O   UNL     1      -0.318   4.459   1.489  1.00  0.00    -0.294 OA
ATOM     23  Cl  UNL     1      -4.645  -0.144   3.782  1.00  0.00    -0.076 Cl
ATOM     24  C   UNL     1      -3.975   5.000  -0.316  1.00  0.00     0.013 C 
BRANCH   8  25
ATOM     25  O   UNL     1      -7.274  -1.268   3.145  1.00  0.00    -0.495 OA
ATOM     26  C   UNL     1      -8.502  -1.956   2.949  1.00  0.00     0.278 C 
ENDBRANCH   8  25
BRANCH  11  27
ATOM     27  O   UNL     1      -7.614   0.984  -1.211  1.00  0.00    -0.496 OA
ATOM     28  C   UNL     1      -8.847   0.348  -1.521  1.00  0.00     0.278 C 
ENDBRANCH  11  27
BRANCH  18  29
ATOM     29  O   UNL     1      -2.377   1.338  -1.445  1.00  0.00    -0.507 OA
ATOM     30  H   UNL     1      -3.186   1.443  -1.992  1.00  0.00     0.293 HD
ENDBRANCH  18  29
ENDBRANCH   6   7
BRANCH   6  31
ATOM     31  C   UNL     1       0.912   1.643   0.158  1.00  0.00    -0.040 A 
ATOM     32  C   UNL     1       1.994   2.037   0.959  1.00  0.00     0.005 A 
ATOM     33  C   UNL     1       0.569   0.282   0.122  1.00  0.00     0.005 A 
ATOM     34  C   UNL     1       2.717   1.097   1.698  1.00  0.00     0.015 A 
ATOM     35  C   UNL     1       1.294  -0.657   0.862  1.00  0.00     0.015 A 
ATOM     36  C   UNL     1       2.363  -0.254   1.664  1.00  0.00     0.007 A 
BRANCH  36  37
ATOM     37  S   UNL     1       3.254  -1.478   2.605  1.00  0.00    -0.130 SA
ATOM     38  C   UNL     1       2.984  -0.833   4.277  1.00  0.00     0.091 C 
ENDBRANCH  36  37
ENDBRANCH   6  31
ENDBRANCH   5   6
ENDBRANCH   1   5
BRANCH   3  39
ATOM     39  C   UNL     1       3.803   2.162  -3.177  1.00  0.00     0.216 C 
BRANCH  39  40
ATOM     40  C   UNL     1       4.647   0.952  -3.033  1.00  0.00     0.246 A 
ATOM     41  N   UNL     1       4.466  -0.114  -2.284  1.00  0.00    -0.190 NA
ATOM     42  O   UNL     1       5.787   0.905  -3.775  1.00  0.00    -0.337 OA
ATOM     43  C   UNL     1       5.579  -0.875  -2.575  1.00  0.00     0.202 A 
ATOM     44  N   UNL     1       6.401  -0.310  -3.477  1.00  0.00    -0.057 NA
BRANCH  43  45
ATOM     45  C   UNL     1       5.817  -2.170  -1.950  1.00  0.00     0.023 A 
ATOM     46  C   UNL     1       5.003  -2.611  -0.905  1.00  0.00     0.014 A 
ATOM     47  C   UNL     1       6.858  -3.002  -2.366  1.00  0.00     0.014 A 
ATOM     48  C   UNL     1       5.230  -3.853  -0.292  1.00  0.00     0.026 A 
ATOM     49  C   UNL     1       7.073  -4.246  -1.747  1.00  0.00     0.026 A 
ATOM     50  C   UNL     1       6.269  -4.711  -0.692  1.00  0.00     0.036 A 
BRANCH  50  51
ATOM     51  N   UNL     1       6.487  -5.941  -0.083  1.00  0.00    -0.378 N 
ATOM     52  C   UNL     1       5.697  -6.359   1.068  1.00  0.00     0.143 C 
ATOM     53  C   UNL     1       7.536  -6.839  -0.549  1.00  0.00     0.143 C 
ENDBRANCH  50  51
ENDBRANCH  43  45
ENDBRANCH  39  40
ENDBRANCH   3  39
TORSDOF 12
