REMARK SMILES COc1cc(OC)c2c(c1Cl)O[C@]1(C2=O)C(O)=C(C(CC(=O)NCCc2nc(-c3ccc(N(C)C)cc3)no2)c2ccc(SC)cc2)C(=O)C[C@H]1C
REMARK SMILES IDX 21 1 22 2 23 3 20 5 19 6 18 7 3 8 4 9 10 10 5 11 9 12 8 13
REMARK SMILES IDX 12 14 14 15 13 16 15 17 16 18 51 19 50 20 48 21 49 22 11 23
REMARK SMILES IDX 52 24 2 25 1 26 6 27 7 28 17 29 40 31 41 32 47 33 42 34
REMARK SMILES IDX 46 35 43 36 44 37 45 38 24 39 25 40 26 41 27 42 39 43 28 44
REMARK SMILES IDX 38 45 29 46 30 47 37 48 31 49 36 50 32 51 33 52 34 53 35 54
REMARK H PARENT 23 4 17 30
ROOT
ATOM      1  C   UNL     1       0.478   1.293  -1.835  1.00  0.00     0.220 C 
ATOM      2  O   UNL     1       0.334   0.075  -1.841  1.00  0.00    -0.275 OA
ATOM      3  N   UNL     1       1.700   1.899  -1.634  1.00  0.00    -0.356 N 
ATOM      4  H   UNL     1       1.754   2.911  -1.615  1.00  0.00     0.163 HD
ENDROOT
BRANCH   1   5
ATOM      5  C   UNL     1      -0.650   2.280  -2.059  1.00  0.00     0.113 C 
BRANCH   5   6
ATOM      6  C   UNL     1      -2.047   1.660  -1.838  1.00  0.00     0.066 C 
BRANCH   6   7
ATOM      7  C   UNL     1      -2.275   0.877  -0.544  1.00  0.00     0.045 C 
ATOM      8  C   UNL     1      -6.382  -4.451   0.948  1.00  0.00     0.144 A 
ATOM      9  C   UNL     1      -7.144  -3.466   1.606  1.00  0.00     0.095 A 
ATOM     10  C   UNL     1      -5.077  -4.187   0.513  1.00  0.00     0.126 A 
ATOM     11  C   UNL     1      -6.627  -2.184   1.806  1.00  0.00     0.137 A 
ATOM     12  C   UNL     1      -4.573  -2.914   0.715  1.00  0.00     0.158 A 
ATOM     13  C   UNL     1      -5.341  -1.946   1.339  1.00  0.00     0.108 A 
ATOM     14  O   UNL     1      -3.315  -2.509   0.329  1.00  0.00    -0.468 OA
ATOM     15  C   UNL     1      -4.515  -0.759   1.387  1.00  0.00     0.222 C 
ATOM     16  C   UNL     1      -3.181  -1.118   0.736  1.00  0.00     0.231 C 
ATOM     17  O   UNL     1      -4.834   0.309   1.876  1.00  0.00    -0.289 OA
ATOM     18  C   UNL     1      -2.979  -0.274  -0.509  1.00  0.00     0.152 C 
ATOM     19  C   UNL     1      -1.977  -0.970   1.679  1.00  0.00     0.054 C 
ATOM     20  C   UNL     1      -1.708   0.504   1.976  1.00  0.00     0.089 C 
ATOM     21  C   UNL     1      -1.633   1.358   0.724  1.00  0.00     0.163 C 
ATOM     22  O   UNL     1      -1.046   2.439   0.765  1.00  0.00    -0.294 OA
ATOM     23  Cl  UNL     1      -4.119  -5.393  -0.257  1.00  0.00    -0.076 Cl
ATOM     24  C   UNL     1      -2.109  -1.767   2.980  1.00  0.00     0.013 C 
BRANCH   8  25
ATOM     25  O   UNL     1      -6.927  -5.704   0.818  1.00  0.00    -0.495 OA
ATOM     26  C   UNL     1      -7.727  -5.780  -0.364  1.00  0.00     0.278 C 
ENDBRANCH   8  25
BRANCH  11  27
ATOM     27  O   UNL     1      -7.272  -1.157   2.420  1.00  0.00    -0.496 OA
ATOM     28  C   UNL     1      -8.578  -1.399   2.924  1.00  0.00     0.278 C 
ENDBRANCH  11  27
BRANCH  18  29
ATOM     29  O   UNL     1      -3.507  -0.796  -1.688  1.00  0.00    -0.507 OA
ATOM     30  H   UNL     1      -3.527  -1.770  -1.594  1.00  0.00     0.293 HD
ENDBRANCH  18  29
ENDBRANCH   6   7
BRANCH   6  31
ATOM     31  C   UNL     1      -3.151   2.696  -2.063  1.00  0.00    -0.040 A 
ATOM     32  C   UNL     1      -3.226   3.878  -1.313  1.00  0.00     0.005 A 
ATOM     33  C   UNL     1      -4.146   2.453  -3.022  1.00  0.00     0.005 A 
ATOM     34  C   UNL     1      -4.255   4.801  -1.531  1.00  0.00     0.015 A 
ATOM     35  C   UNL     1      -5.172   3.377  -3.240  1.00  0.00     0.015 A 
ATOM     36  C   UNL     1      -5.226   4.564  -2.507  1.00  0.00     0.007 A 
BRANCH  36  37
ATOM     37  S   UNL     1      -6.563   5.705  -2.811  1.00  0.00    -0.130 SA
ATOM     38  C   UNL     1      -5.631   7.241  -3.048  1.00  0.00     0.091 C 
ENDBRANCH  36  37
ENDBRANCH   6  31
ENDBRANCH   5   6
ENDBRANCH   1   5
BRANCH   3  39
ATOM     39  C   UNL     1       2.903   1.128  -1.377  1.00  0.00     0.125 C 
BRANCH  39  40
ATOM     40  C   UNL     1       2.962   0.620   0.062  1.00  0.00     0.121 C 
BRANCH  40  41
ATOM     41  C   UNL     1       4.222  -0.111   0.314  1.00  0.00     0.228 A 
ATOM     42  N   UNL     1       5.464   0.293   0.181  1.00  0.00    -0.191 NA
ATOM     43  O   UNL     1       4.115  -1.390   0.771  1.00  0.00    -0.339 OA
ATOM     44  C   UNL     1       6.184  -0.814   0.585  1.00  0.00     0.202 A 
ATOM     45  N   UNL     1       5.415  -1.856   0.948  1.00  0.00    -0.057 NA
BRANCH  44  46
ATOM     46  C   UNL     1       7.643  -0.827   0.608  1.00  0.00     0.023 A 
ATOM     47  C   UNL     1       8.355  -1.949   1.036  1.00  0.00     0.014 A 
ATOM     48  C   UNL     1       8.370   0.293   0.200  1.00  0.00     0.014 A 
ATOM     49  C   UNL     1       9.760  -1.944   1.052  1.00  0.00     0.026 A 
ATOM     50  C   UNL     1       9.775   0.286   0.220  1.00  0.00     0.026 A 
ATOM     51  C   UNL     1      10.515  -0.830   0.647  1.00  0.00     0.036 A 
BRANCH  51  52
ATOM     52  N   UNL     1      11.905  -0.831   0.667  1.00  0.00    -0.378 N 
ATOM     53  C   UNL     1      12.650  -1.992   1.136  1.00  0.00     0.143 C 
ATOM     54  C   UNL     1      12.666   0.329   0.222  1.00  0.00     0.143 C 
ENDBRANCH  51  52
ENDBRANCH  44  46
ENDBRANCH  40  41
ENDBRANCH  39  40
ENDBRANCH   3  39
TORSDOF 13
