REMARK SMILES COc1cc(OC)c2c(c1Cl)O[C@@]1(C(=O)C=C(N[C@@H](Cc3ccccc3)C(N)=O)C[C@H]1C)C2=O
REMARK SMILES IDX 18 1 17 3 3 4 4 5 10 6 5 7 9 8 8 9 12 10 33 11 13 12 34 13
REMARK SMILES IDX 14 14 31 15 15 16 16 17 30 18 11 19 32 20 2 21 1 22 6 23
REMARK SMILES IDX 7 24 19 25 20 26 21 27 22 28 26 29 23 30 25 31 24 32 27 33
REMARK SMILES IDX 28 34 29 35
REMARK H PARENT 18 2 28 36 28 37
ROOT
ATOM      1  N   UNL     1      -2.744  -2.080  -0.360  1.00  0.00    -0.377 N 
ATOM      2  H   UNL     1      -3.017  -2.702  -1.120  1.00  0.00     0.161 HD
ENDROOT
BRANCH   1   3
ATOM      3  C   UNL     1      -1.665  -1.245  -0.601  1.00  0.00     0.015 C 
ATOM      4  C   UNL     1       5.138   1.907  -1.260  1.00  0.00     0.144 A 
ATOM      5  C   UNL     1       5.419   0.763  -0.481  1.00  0.00     0.095 A 
ATOM      6  C   UNL     1       3.808   2.194  -1.622  1.00  0.00     0.126 A 
ATOM      7  C   UNL     1       4.395  -0.098  -0.061  1.00  0.00     0.137 A 
ATOM      8  C   UNL     1       2.803   1.336  -1.208  1.00  0.00     0.158 A 
ATOM      9  C   UNL     1       3.104   0.225  -0.446  1.00  0.00     0.108 A 
ATOM     10  O   UNL     1       1.468   1.506  -1.486  1.00  0.00    -0.468 OA
ATOM     11  C   UNL     1       1.838  -0.424  -0.186  1.00  0.00     0.222 C 
ATOM     12  C   UNL     1       0.770   0.365  -0.920  1.00  0.00     0.236 C 
ATOM     13  O   UNL     1       1.675  -1.423   0.492  1.00  0.00    -0.289 OA
ATOM     14  C   UNL     1       0.190  -0.474  -2.055  1.00  0.00     0.209 C 
ATOM     15  C   UNL     1      -0.363   0.881  -0.021  1.00  0.00     0.052 C 
ATOM     16  O   UNL     1       0.696  -0.540  -3.176  1.00  0.00    -0.290 OA
ATOM     17  C   UNL     1      -1.009  -1.303  -1.773  1.00  0.00     0.073 C 
ATOM     18  C   UNL     1      -1.249  -0.268   0.483  1.00  0.00     0.062 C 
ATOM     19  Cl  UNL     1       3.410   3.592  -2.557  1.00  0.00    -0.076 Cl
ATOM     20  C   UNL     1       0.124   1.737   1.153  1.00  0.00     0.013 C 
BRANCH   4  21
ATOM     21  O   UNL     1       6.092   2.794  -1.694  1.00  0.00    -0.495 OA
ATOM     22  C   UNL     1       7.457   2.488  -1.444  1.00  0.00     0.278 C 
ENDBRANCH   4  21
BRANCH   7  23
ATOM     23  O   UNL     1       4.559  -1.218   0.696  1.00  0.00    -0.496 OA
ATOM     24  C   UNL     1       5.883  -1.593   1.054  1.00  0.00     0.278 C 
ENDBRANCH   7  23
ENDBRANCH   1   3
BRANCH   1  25
ATOM     25  C   UNL     1      -3.598  -2.180   0.843  1.00  0.00     0.172 C 
BRANCH  25  26
ATOM     26  C   UNL     1      -5.000  -1.608   0.574  1.00  0.00     0.070 C 
BRANCH  26  27
ATOM     27  C   UNL     1      -5.020  -0.097   0.487  1.00  0.00    -0.045 A 
ATOM     28  C   UNL     1      -5.170   0.677   1.646  1.00  0.00     0.004 A 
ATOM     29  C   UNL     1      -4.855   0.549  -0.745  1.00  0.00     0.004 A 
ATOM     30  C   UNL     1      -5.155   2.071   1.572  1.00  0.00     0.000 A 
ATOM     31  C   UNL     1      -4.838   1.943  -0.817  1.00  0.00     0.000 A 
ATOM     32  C   UNL     1      -4.988   2.703   0.341  1.00  0.00     0.000 A 
ENDBRANCH  26  27
ENDBRANCH  25  26
BRANCH  25  33
ATOM     33  C   UNL     1      -3.693  -3.668   1.255  1.00  0.00     0.240 C 
ATOM     34  N   UNL     1      -2.502  -4.343   1.204  1.00  0.00    -0.368 N 
ATOM     35  O   UNL     1      -4.713  -4.227   1.643  1.00  0.00    -0.273 OA
ATOM     36  H   UNL     1      -1.670  -3.885   0.848  1.00  0.00     0.159 HD
ATOM     37  H   UNL     1      -2.469  -5.316   1.473  1.00  0.00     0.159 HD
ENDBRANCH  25  33
ENDBRANCH   1  25
TORSDOF 7
