REMARK SMILES Cc1cc(Oc2ccc3nc(COc4ccc(CC5SC(=O)NC5=O)cc4)n(C)c3c2)cc(C)c1N
REMARK SMILES IDX 12 1 11 2 6 3 7 4 31 5 8 6 30 7 9 8 28 9 10 10 29 11 5 12
REMARK SMILES IDX 4 13 2 14 3 15 35 16 33 17 32 18 1 19 34 20 36 21 13 24
REMARK SMILES IDX 14 25 15 26 27 27 16 28 26 29 17 30 18 31 19 32 20 33 24 34
REMARK SMILES IDX 21 35 23 36 25 37 22 38
REMARK H PARENT 36 22 36 23 23 39
ROOT
ATOM      1  C   UNL     1       2.209   0.495  -1.067  1.00  0.00     0.304 C 
ENDROOT
BRANCH   1   2
ATOM      2  C   UNL     1       0.811   0.552  -0.537  1.00  0.00     0.147 A 
ATOM      3  C   UNL     1      -3.427  -0.000   1.017  1.00  0.00     0.129 A 
ATOM      4  C   UNL     1      -3.323   1.392   1.084  1.00  0.00     0.049 A 
ATOM      5  C   UNL     1      -2.358  -0.793   0.579  1.00  0.00     0.075 A 
ATOM      6  C   UNL     1      -2.150   2.036   0.671  1.00  0.00     0.034 A 
ATOM      7  C   UNL     1      -1.197  -0.126   0.169  1.00  0.00     0.072 A 
ATOM      8  C   UNL     1      -1.078   1.260   0.207  1.00  0.00     0.089 A 
ATOM      9  N   UNL     1       0.015  -0.555  -0.322  1.00  0.00    -0.328 N 
ATOM     10  N   UNL     1       0.154   1.660  -0.242  1.00  0.00    -0.229 NA
ATOM     11  C   UNL     1       0.388  -1.930  -0.556  1.00  0.00     0.151 C 
BRANCH   3  12
ATOM     12  O   UNL     1      -4.552  -0.674   1.445  1.00  0.00    -0.457 OA
BRANCH  12  13
ATOM     13  C   UNL     1      -5.771  -0.221   0.994  1.00  0.00     0.128 A 
ATOM     14  C   UNL     1      -7.294   0.503  -0.753  1.00  0.00    -0.024 A 
ATOM     15  C   UNL     1      -6.020   0.075  -0.344  1.00  0.00     0.052 A 
ATOM     16  C   UNL     1      -8.331   0.633   0.197  1.00  0.00     0.038 A 
ATOM     17  C   UNL     1      -8.081   0.284   1.543  1.00  0.00    -0.024 A 
ATOM     18  C   UNL     1      -6.799  -0.140   1.928  1.00  0.00     0.052 A 
ATOM     19  C   UNL     1      -7.515   0.813  -2.209  1.00  0.00     0.047 C 
ATOM     20  C   UNL     1      -9.160   0.356   2.590  1.00  0.00     0.047 C 
BRANCH  16  21
ATOM     21  N   UNL     1      -9.605   1.022  -0.202  1.00  0.00    -0.398 N 
ATOM     22  H   UNL     1     -10.324   1.200   0.484  1.00  0.00     0.156 HD
ATOM     23  H   UNL     1      -9.767   1.356  -1.141  1.00  0.00     0.156 HD
ENDBRANCH  16  21
ENDBRANCH  12  13
ENDBRANCH   3  12
ENDBRANCH   1   2
BRANCH   1  24
ATOM     24  O   UNL     1       2.947  -0.401  -0.237  1.00  0.00    -0.486 OA
BRANCH  24  25
ATOM     25  C   UNL     1       4.248  -0.635  -0.582  1.00  0.00     0.120 A 
ATOM     26  C   UNL     1       4.905  -1.570   0.220  1.00  0.00     0.047 A 
ATOM     27  C   UNL     1       4.942  -0.035  -1.631  1.00  0.00     0.047 A 
ATOM     28  C   UNL     1       6.238  -1.909  -0.021  1.00  0.00     0.007 A 
ATOM     29  C   UNL     1       6.279  -0.371  -1.874  1.00  0.00     0.007 A 
ATOM     30  C   UNL     1       6.942  -1.307  -1.069  1.00  0.00    -0.046 A 
BRANCH  30  31
ATOM     31  C   UNL     1       8.394  -1.649  -1.325  1.00  0.00     0.060 C 
BRANCH  31  32
ATOM     32  C   UNL     1       9.429  -0.764  -0.623  1.00  0.00     0.150 C 
ATOM     33  S   UNL     1       9.381  -0.844   1.200  1.00  0.00    -0.051 SA
ATOM     34  C   UNL     1       9.268   0.702  -0.963  1.00  0.00     0.241 C 
ATOM     35  C   UNL     1       9.121   0.873   1.364  1.00  0.00     0.286 C 
ATOM     36  N   UNL     1       9.101   1.469   0.149  1.00  0.00    -0.286 N 
ATOM     37  O   UNL     1       9.292   1.160  -2.099  1.00  0.00    -0.273 OA
ATOM     38  O   UNL     1       8.995   1.442   2.434  1.00  0.00    -0.261 OA
ATOM     39  H   UNL     1       8.969   2.465   0.078  1.00  0.00     0.173 HD
ENDBRANCH  31  32
ENDBRANCH  30  31
ENDBRANCH  24  25
ENDBRANCH   1  24
TORSDOF 8
