REMARK SMILES COc1cccc(Oc2cnc(N)nc2-c2ccc(OCc3ccc(Cl)c(Cl)c3)cc2O)c1
REMARK SMILES IDX 9 1 10 2 11 3 12 4 14 5 15 6 8 7 7 8 3 9 4 10 33 11 5 12
REMARK SMILES IDX 6 13 2 14 1 15 16 16 17 17 31 18 18 19 30 20 19 21 32 22
REMARK SMILES IDX 20 24 21 25 22 26 23 27 29 28 24 29 27 30 25 31 28 32 26 33
REMARK SMILES IDX 13 34
REMARK H PARENT 32 23 13 35 13 36
ROOT
ATOM      1  C   UNL     1      -2.644  -1.540  -0.703  1.00  0.00     0.172 A 
ATOM      2  C   UNL     1      -3.783  -2.279  -0.947  1.00  0.00     0.164 A 
ATOM      3  N   UNL     1      -3.780  -3.502  -1.518  1.00  0.00    -0.218 NA
ATOM      4  C   UNL     1      -2.589  -3.985  -1.878  1.00  0.00     0.220 A 
ATOM      5  N   UNL     1      -1.427  -3.348  -1.717  1.00  0.00    -0.209 NA
ATOM      6  C   UNL     1      -1.460  -2.129  -1.118  1.00  0.00     0.122 A 
ENDROOT
BRANCH   1   7
ATOM      7  O   UNL     1      -2.653  -0.268  -0.196  1.00  0.00    -0.453 OA
BRANCH   7   8
ATOM      8  C   UNL     1      -3.540   0.012   0.819  1.00  0.00     0.131 A 
ATOM      9  C   UNL     1      -5.214   1.522   1.688  1.00  0.00     0.122 A 
ATOM     10  C   UNL     1      -5.312   0.724   2.832  1.00  0.00     0.046 A 
ATOM     11  C   UNL     1      -4.316   1.166   0.681  1.00  0.00     0.093 A 
ATOM     12  C   UNL     1      -4.517  -0.414   2.979  1.00  0.00     0.008 A 
ATOM     13  C   UNL     1      -3.621  -0.768   1.974  1.00  0.00     0.047 A 
BRANCH   9  14
ATOM     14  O   UNL     1      -6.041   2.612   1.680  1.00  0.00    -0.497 OA
ATOM     15  C   UNL     1      -5.986   3.453   0.534  1.00  0.00     0.278 C 
ENDBRANCH   9  14
ENDBRANCH   7   8
ENDBRANCH   1   7
BRANCH   6  16
ATOM     16  C   UNL     1      -0.145  -1.478  -0.995  1.00  0.00     0.046 A 
ATOM     17  C   UNL     1       0.614  -1.224  -2.150  1.00  0.00     0.018 A 
ATOM     18  C   UNL     1       0.411  -1.101   0.239  1.00  0.00     0.128 A 
ATOM     19  C   UNL     1       1.861  -0.598  -2.073  1.00  0.00     0.047 A 
ATOM     20  C   UNL     1       1.661  -0.471   0.322  1.00  0.00     0.093 A 
ATOM     21  C   UNL     1       2.389  -0.215  -0.840  1.00  0.00     0.123 A 
BRANCH  18  22
ATOM     22  O   UNL     1      -0.276  -1.376   1.393  1.00  0.00    -0.507 OA
ATOM     23  H   UNL     1       0.230  -1.054   2.156  1.00  0.00     0.293 HD
ENDBRANCH  18  22
BRANCH  21  24
ATOM     24  O   UNL     1       3.613   0.388  -0.912  1.00  0.00    -0.489 OA
BRANCH  24  25
ATOM     25  C   UNL     1       4.215   0.797   0.313  1.00  0.00     0.265 C 
BRANCH  25  26
ATOM     26  C   UNL     1       5.546   1.426  -0.018  1.00  0.00    -0.009 A 
ATOM     27  C   UNL     1       5.651   2.807  -0.228  1.00  0.00     0.009 A 
ATOM     28  C   UNL     1       6.691   0.627  -0.166  1.00  0.00     0.029 A 
ATOM     29  C   UNL     1       6.881   3.382  -0.556  1.00  0.00     0.022 A 
ATOM     30  C   UNL     1       7.924   1.201  -0.495  1.00  0.00     0.060 A 
ATOM     31  C   UNL     1       8.020   2.582  -0.688  1.00  0.00     0.059 A 
ATOM     32  Cl  UNL     1       9.285   0.147  -0.648  1.00  0.00    -0.083 Cl
ATOM     33  Cl  UNL     1       9.508   3.362  -1.092  1.00  0.00    -0.083 Cl
ENDBRANCH  25  26
ENDBRANCH  24  25
ENDBRANCH  21  24
ENDBRANCH   6  16
BRANCH   4  34
ATOM     34  N   UNL     1      -2.558  -5.216  -2.460  1.00  0.00    -0.368 N 
ATOM     35  H   UNL     1      -1.663  -5.593  -2.717  1.00  0.00     0.159 HD
ATOM     36  H   UNL     1      -3.427  -5.706  -2.573  1.00  0.00     0.159 HD
ENDBRANCH   4  34
TORSDOF 9
