REMARK SMILES COc1cc(C(CC(=O)NCc2csc(C)n2)C2=C(O)[C@@]3(Oc4c(Cl)c(OC)cc(OC)c4C3=O)[C@H](C)CC2=O)ccc1O
REMARK SMILES IDX 7 1 6 2 5 3 3 4 4 5 43 6 42 7 41 8 2 9 1 10 44 11 18 13
REMARK SMILES IDX 19 14 39 15 21 16 38 17 40 18 22 19 36 20 34 21 23 22 33 23
REMARK SMILES IDX 35 24 24 25 30 26 26 27 29 28 37 29 25 30 20 31 31 33 32 34
REMARK SMILES IDX 27 35 28 36 8 37 9 38 10 39 11 41 12 42 13 43 17 44 14 45
REMARK SMILES IDX 15 46 16 47
REMARK H PARENT 44 12 20 32 10 40
ROOT
ATOM      1  C   UNL     1       2.676  -0.444  -0.259  1.00  0.00     0.113 C 
ENDROOT
BRANCH   1   2
ATOM      2  C   UNL     1       1.948  -0.236   1.084  1.00  0.00     0.066 C 
BRANCH   2   3
ATOM      3  C   UNL     1       1.352  -1.480   1.763  1.00  0.00    -0.036 A 
ATOM      4  C   UNL     1       0.115  -2.403   3.664  1.00  0.00     0.160 A 
ATOM      5  C   UNL     1       0.710  -1.320   3.014  1.00  0.00     0.054 A 
ATOM      6  C   UNL     1       0.189  -3.664   3.069  1.00  0.00     0.157 A 
ATOM      7  C   UNL     1       0.835  -3.857   1.857  1.00  0.00     0.050 A 
ATOM      8  C   UNL     1       1.417  -2.769   1.206  1.00  0.00     0.008 A 
BRANCH   4   9
ATOM      9  O   UNL     1      -0.555  -2.363   4.860  1.00  0.00    -0.493 OA
ATOM     10  C   UNL     1      -0.740  -1.078   5.443  1.00  0.00     0.278 C 
ENDBRANCH   4   9
BRANCH   6  11
ATOM     11  O   UNL     1      -0.381  -4.749   3.678  1.00  0.00    -0.504 OA
ATOM     12  H   UNL     1      -0.754  -4.400   4.512  1.00  0.00     0.293 HD
ENDBRANCH   6  11
ENDBRANCH   2   3
BRANCH   2  13
ATOM     13  C   UNL     1       0.912   0.884   0.881  1.00  0.00     0.045 C 
ATOM     14  C   UNL     1      -0.339   0.788   0.371  1.00  0.00     0.152 C 
ATOM     15  C   UNL     1       1.391   2.246   1.320  1.00  0.00     0.163 C 
ATOM     16  C   UNL     1      -1.280   1.979   0.200  1.00  0.00     0.231 C 
ATOM     17  C   UNL     1       0.406   3.391   1.370  1.00  0.00     0.089 C 
ATOM     18  O   UNL     1       2.559   2.418   1.663  1.00  0.00    -0.294 OA
ATOM     19  O   UNL     1      -2.162   1.965   1.366  1.00  0.00    -0.468 OA
ATOM     20  C   UNL     1      -0.560   3.342   0.186  1.00  0.00     0.054 C 
ATOM     21  C   UNL     1      -2.220   1.810  -0.998  1.00  0.00     0.222 C 
ATOM     22  C   UNL     1      -3.439   1.768   0.901  1.00  0.00     0.158 A 
ATOM     23  C   UNL     1      -3.561   1.675  -0.470  1.00  0.00     0.108 A 
ATOM     24  O   UNL     1      -1.922   1.783  -2.180  1.00  0.00    -0.289 OA
ATOM     25  C   UNL     1      -4.556   1.666   1.714  1.00  0.00     0.126 A 
ATOM     26  C   UNL     1      -4.780   1.483  -1.103  1.00  0.00     0.137 A 
ATOM     27  C   UNL     1      -5.816   1.470   1.118  1.00  0.00     0.144 A 
ATOM     28  C   UNL     1      -5.916   1.383  -0.288  1.00  0.00     0.095 A 
ATOM     29  C   UNL     1       0.187   3.659  -1.118  1.00  0.00     0.013 C 
ATOM     30  Cl  UNL     1      -4.376   1.783   3.430  1.00  0.00    -0.076 Cl
BRANCH  14  31
ATOM     31  O   UNL     1      -0.906  -0.411  -0.032  1.00  0.00    -0.507 OA
ATOM     32  H   UNL     1      -0.362  -1.172   0.229  1.00  0.00     0.293 HD
ENDBRANCH  14  31
BRANCH  26  33
ATOM     33  O   UNL     1      -4.774   1.418  -2.464  1.00  0.00    -0.496 OA
ATOM     34  C   UNL     1      -5.994   1.105  -3.122  1.00  0.00     0.278 C 
ENDBRANCH  26  33
BRANCH  27  35
ATOM     35  O   UNL     1      -6.886   1.385   1.973  1.00  0.00    -0.495 OA
ATOM     36  C   UNL     1      -8.166   1.105   1.421  1.00  0.00     0.278 C 
ENDBRANCH  27  35
ENDBRANCH   2  13
ENDBRANCH   1   2
BRANCH   1  37
ATOM     37  C   UNL     1       4.020  -1.132  -0.122  1.00  0.00     0.221 C 
ATOM     38  O   UNL     1       4.519  -1.470   0.944  1.00  0.00    -0.275 OA
ATOM     39  N   UNL     1       4.633  -1.346  -1.329  1.00  0.00    -0.350 N 
ATOM     40  H   UNL     1       4.214  -1.051  -2.207  1.00  0.00     0.163 HD
BRANCH  39  41
ATOM     41  C   UNL     1       5.926  -1.980  -1.426  1.00  0.00     0.173 C 
BRANCH  41  42
ATOM     42  C   UNL     1       6.321  -2.058  -2.869  1.00  0.00     0.071 A 
ATOM     43  C   UNL     1       7.515  -2.552  -3.359  1.00  0.00     0.092 A 
ATOM     44  N   UNL     1       5.439  -1.600  -3.850  1.00  0.00    -0.245 NA
ATOM     45  S   UNL     1       7.546  -2.444  -5.068  1.00  0.00    -0.127 S 
ATOM     46  C   UNL     1       5.974  -1.751  -5.043  1.00  0.00     0.090 A 
ATOM     47  C   UNL     1       5.311  -1.365  -6.319  1.00  0.00     0.079 C 
ENDBRANCH  41  42
ENDBRANCH  39  41
ENDBRANCH   1  37
TORSDOF 11
