REMARK SMILES C=C(C)[C@H]1COc2c(C)cc3oc4c(C[C@H](O)C(C)(C)OCc5c(/C=C/[C@@H](O)[C@@H](O)CCC)cccc5OC)ccc(O)c4c(=O)c3c2[C@@H]1O
REMARK SMILES IDX 22 1 21 2 18 3 19 4 20 5 16 6 15 7 14 8 4 9 5 10 49 11 6 12
REMARK SMILES IDX 48 13 7 14 47 15 8 16 45 17 11 18 10 19 44 20 46 21 12 22
REMARK SMILES IDX 42 23 13 24 41 25 40 26 9 27 2 28 1 29 3 30 50 31 43 33
REMARK SMILES IDX 17 35 23 37 24 38 37 39 34 40 36 41 35 42 25 43 26 44 27 45
REMARK SMILES IDX 28 46 29 48 30 49 31 51 32 52 33 53 38 54 39 55
REMARK H PARENT 50 32 43 34 17 36 28 47 30 50
ROOT
ATOM      1  C   UNL     1       3.803   0.813  -1.781  1.00  0.00     0.201 C 
ENDROOT
BRANCH   1   2
ATOM      2  O   UNL     1       2.873   1.348  -0.842  1.00  0.00    -0.368 OA
BRANCH   2   3
ATOM      3  C   UNL     1       3.304   2.443  -0.007  1.00  0.00     0.089 C 
ATOM      4  C   UNL     1       4.569   2.090   0.783  1.00  0.00     0.045 C 
ATOM      5  C   UNL     1       3.549   3.710  -0.847  1.00  0.00     0.045 C 
BRANCH   3   6
ATOM      6  C   UNL     1       2.086   2.707   0.942  1.00  0.00     0.150 C 
BRANCH   6   7
ATOM      7  C   UNL     1       1.781   1.511   1.868  1.00  0.00     0.074 C 
BRANCH   7   8
ATOM      8  C   UNL     1       0.462   1.616   2.604  1.00  0.00    -0.001 A 
ATOM      9  C   UNL     1      -6.518  -1.412  -0.229  1.00  0.00     0.085 C 
ATOM     10  C   UNL     1      -6.144  -1.111  -1.678  1.00  0.00     0.240 C 
ATOM     11  C   UNL     1      -5.494  -0.688   0.677  1.00  0.00     0.159 C 
ATOM     12  O   UNL     1      -4.854  -1.642  -1.982  1.00  0.00    -0.492 OA
ATOM     13  C   UNL     1      -4.095  -0.619   0.100  1.00  0.00     0.038 A 
ATOM     14  C   UNL     1      -3.855  -1.136  -1.188  1.00  0.00     0.129 A 
ATOM     15  C   UNL     1      -3.004  -0.048   0.800  1.00  0.00     0.075 A 
ATOM     16  C   UNL     1      -2.563  -1.178  -1.738  1.00  0.00    -0.005 A 
ATOM     17  C   UNL     1      -3.132   0.615   2.121  1.00  0.00     0.204 C 
ATOM     18  C   UNL     1      -1.722  -0.070   0.243  1.00  0.00     0.139 A 
ATOM     19  C   UNL     1      -1.502  -0.638  -1.012  1.00  0.00     0.055 A 
ATOM     20  C   UNL     1      -1.926   1.193   2.732  1.00  0.00     0.107 A 
ATOM     21  O   UNL     1      -4.201   0.709   2.720  1.00  0.00    -0.288 OA
ATOM     22  O   UNL     1      -0.599   0.434   0.846  1.00  0.00    -0.455 OA
ATOM     23  C   UNL     1      -1.970   1.858   3.963  1.00  0.00     0.130 A 
ATOM     24  C   UNL     1      -0.716   1.072   2.056  1.00  0.00     0.145 A 
ATOM     25  C   UNL     1      -0.813   2.402   4.513  1.00  0.00     0.047 A 
ATOM     26  C   UNL     1       0.400   2.285   3.835  1.00  0.00     0.011 A 
ATOM     27  C   UNL     1      -2.319  -1.760  -3.103  1.00  0.00     0.048 C 
BRANCH   9  28
ATOM     28  C   UNL     1      -7.970  -1.076   0.143  1.00  0.00    -0.071 C 
ATOM     29  C   UNL     1      -8.803  -0.328  -0.602  1.00  0.00     0.008 C 
ATOM     30  C   UNL     1      -8.464  -1.680   1.436  1.00  0.00     0.039 C 
ENDBRANCH   9  28
BRANCH  11  31
ATOM     31  O   UNL     1      -5.436  -1.405   1.916  1.00  0.00    -0.387 OA
ATOM     32  H   UNL     1      -5.202  -0.729   2.586  1.00  0.00     0.211 HD
ENDBRANCH  11  31
BRANCH  23  33
ATOM     33  O   UNL     1      -3.121   2.018   4.687  1.00  0.00    -0.507 OA
ATOM     34  H   UNL     1      -3.852   1.603   4.177  1.00  0.00     0.293 HD
ENDBRANCH  23  33
ENDBRANCH   7   8
ENDBRANCH   6   7
BRANCH   6  35
ATOM     35  O   UNL     1       0.938   2.976   0.117  1.00  0.00    -0.390 OA
ATOM     36  H   UNL     1       0.946   2.274  -0.565  1.00  0.00     0.211 HD
ENDBRANCH   6  35
ENDBRANCH   3   6
ENDBRANCH   2   3
ENDBRANCH   1   2
BRANCH   1  37
ATOM     37  C   UNL     1       3.011   0.310  -2.967  1.00  0.00     0.027 A 
ATOM     38  C   UNL     1       2.580  -1.031  -3.073  1.00  0.00    -0.017 A 
ATOM     39  C   UNL     1       2.657   1.225  -3.991  1.00  0.00     0.124 A 
ATOM     40  C   UNL     1       1.832  -1.430  -4.194  1.00  0.00     0.009 A 
ATOM     41  C   UNL     1       1.908   0.800  -5.094  1.00  0.00     0.047 A 
ATOM     42  C   UNL     1       1.495  -0.524  -5.194  1.00  0.00     0.004 A 
BRANCH  38  43
ATOM     43  C   UNL     1       2.875  -2.107  -2.115  1.00  0.00     0.007 C 
ATOM     44  C   UNL     1       2.464  -2.123  -0.836  1.00  0.00     0.007 C 
BRANCH  44  45
ATOM     45  C   UNL     1       2.589  -3.298   0.108  1.00  0.00     0.166 C 
BRANCH  45  46
ATOM     46  O   UNL     1       2.939  -4.471  -0.637  1.00  0.00    -0.386 OA
ATOM     47  H   UNL     1       3.910  -4.551  -0.561  1.00  0.00     0.211 HD
ENDBRANCH  45  46
BRANCH  45  48
ATOM     48  C   UNL     1       3.626  -3.129   1.245  1.00  0.00     0.147 C 
BRANCH  48  49
ATOM     49  O   UNL     1       4.945  -3.085   0.673  1.00  0.00    -0.390 OA
ATOM     50  H   UNL     1       4.985  -2.296   0.103  1.00  0.00     0.211 HD
ENDBRANCH  48  49
BRANCH  48  51
ATOM     51  C   UNL     1       3.398  -1.907   2.136  1.00  0.00     0.034 C 
BRANCH  51  52
ATOM     52  C   UNL     1       4.316  -1.926   3.363  1.00  0.00    -0.001 C 
ATOM     53  C   UNL     1       4.092  -0.715   4.254  1.00  0.00     0.004 C 
ENDBRANCH  51  52
ENDBRANCH  48  51
ENDBRANCH  45  48
ENDBRANCH  44  45
ENDBRANCH  38  43
BRANCH  39  54
ATOM     54  O   UNL     1       3.119   2.509  -3.840  1.00  0.00    -0.496 OA
ATOM     55  C   UNL     1       2.551   3.511  -4.674  1.00  0.00     0.278 C 
ENDBRANCH  39  54
ENDBRANCH   1  37
TORSDOF 18
