REMARK SMILES C=C(C)[C@H]1COc2c(C)cc3oc4c(C[C@H](O)C(C)(C)OCc5c(/C=C/[C@@H](O)[C@@H](O)/C=C/C)cccc5OC)ccc(O)c4c(=O)c3c2[C@@H]1O
REMARK SMILES IDX 21 1 18 2 19 3 20 4 16 5 15 6 14 7 4 8 5 9 49 10 6 11 48 12
REMARK SMILES IDX 7 13 47 14 8 15 45 16 11 17 10 18 44 19 46 20 12 21 42 22
REMARK SMILES IDX 13 23 41 24 40 25 9 26 2 27 1 28 3 29 50 30 43 32 17 34
REMARK SMILES IDX 22 36 23 37 24 38 37 39 34 40 36 41 35 42 25 43 26 44 27 45
REMARK SMILES IDX 28 46 29 48 30 49 31 51 32 52 33 53 38 54 39 55
REMARK H PARENT 50 31 43 33 17 35 28 47 30 50
ROOT
ATOM      1  O   UNL     1       2.531  -0.625  -0.380  1.00  0.00    -0.368 OA
ENDROOT
BRANCH   1   2
ATOM      2  C   UNL     1       1.662  -1.140   0.640  1.00  0.00     0.089 C 
ATOM      3  C   UNL     1       2.456  -1.866   1.748  1.00  0.00     0.045 C 
ATOM      4  C   UNL     1       1.041   0.101   1.309  1.00  0.00     0.045 C 
BRANCH   2   5
ATOM      5  C   UNL     1       0.580  -2.103   0.053  1.00  0.00     0.150 C 
BRANCH   5   6
ATOM      6  C   UNL     1      -0.049  -1.749  -1.315  1.00  0.00     0.074 C 
BRANCH   6   7
ATOM      7  C   UNL     1      -0.694  -0.391  -1.489  1.00  0.00    -0.001 A 
ATOM      8  C   UNL     1      -7.985   1.706   0.902  1.00  0.00     0.085 C 
ATOM      9  C   UNL     1      -8.160   0.521   1.872  1.00  0.00     0.240 C 
ATOM     10  C   UNL     1      -7.088   1.304  -0.293  1.00  0.00     0.159 C 
ATOM     11  O   UNL     1      -7.887  -0.749   1.258  1.00  0.00    -0.492 OA
ATOM     12  C   UNL     1      -6.028   0.309   0.155  1.00  0.00     0.038 A 
ATOM     13  C   UNL     1      -6.573  -0.796   0.847  1.00  0.00     0.129 A 
ATOM     14  C   UNL     1      -4.658   0.270  -0.153  1.00  0.00     0.075 A 
ATOM     15  C   UNL     1      -5.845  -1.961   1.110  1.00  0.00    -0.005 A 
ATOM     16  C   UNL     1      -3.871   1.418  -0.638  1.00  0.00     0.204 C 
ATOM     17  C   UNL     1      -3.924  -0.902   0.083  1.00  0.00     0.139 A 
ATOM     18  C   UNL     1      -4.513  -2.009   0.701  1.00  0.00     0.055 A 
ATOM     19  C   UNL     1      -2.536   1.162  -1.191  1.00  0.00     0.107 A 
ATOM     20  O   UNL     1      -4.262   2.576  -0.527  1.00  0.00    -0.288 OA
ATOM     21  O   UNL     1      -2.604  -1.076  -0.261  1.00  0.00    -0.455 OA
ATOM     22  C   UNL     1      -1.827   2.147  -1.883  1.00  0.00     0.130 A 
ATOM     23  C   UNL     1      -1.973  -0.096  -0.985  1.00  0.00     0.145 A 
ATOM     24  C   UNL     1      -0.565   1.869  -2.393  1.00  0.00     0.047 A 
ATOM     25  C   UNL     1      -0.003   0.606  -2.201  1.00  0.00     0.011 A 
ATOM     26  C   UNL     1      -6.476  -3.131   1.806  1.00  0.00     0.048 C 
BRANCH   8  27
ATOM     27  C   UNL     1      -9.342   2.284   0.479  1.00  0.00    -0.071 C 
ATOM     28  C   UNL     1      -9.710   3.528   0.833  1.00  0.00     0.008 C 
ATOM     29  C   UNL     1     -10.262   1.416  -0.340  1.00  0.00     0.039 C 
ENDBRANCH   8  27
BRANCH  10  30
ATOM     30  O   UNL     1      -6.672   2.467  -0.991  1.00  0.00    -0.387 OA
ATOM     31  H   UNL     1      -5.834   2.784  -0.598  1.00  0.00     0.211 HD
ENDBRANCH  10  30
BRANCH  22  32
ATOM     32  O   UNL     1      -2.312   3.409  -2.093  1.00  0.00    -0.507 OA
ATOM     33  H   UNL     1      -3.156   3.495  -1.598  1.00  0.00     0.293 HD
ENDBRANCH  22  32
ENDBRANCH   6   7
ENDBRANCH   5   6
BRANCH   5  34
ATOM     34  O   UNL     1      -0.432  -2.412   1.020  1.00  0.00    -0.390 OA
ATOM     35  H   UNL     1      -1.078  -1.684   1.008  1.00  0.00     0.211 HD
ENDBRANCH   5  34
ENDBRANCH   2   5
ENDBRANCH   1   2
BRANCH   1  36
ATOM     36  C   UNL     1       3.476  -1.529  -0.950  1.00  0.00     0.201 C 
BRANCH  36  37
ATOM     37  C   UNL     1       4.132  -0.846  -2.132  1.00  0.00     0.027 A 
ATOM     38  C   UNL     1       5.084   0.181  -1.928  1.00  0.00    -0.017 A 
ATOM     39  C   UNL     1       3.789  -1.215  -3.452  1.00  0.00     0.124 A 
ATOM     40  C   UNL     1       5.671   0.816  -3.031  1.00  0.00     0.009 A 
ATOM     41  C   UNL     1       4.398  -0.573  -4.537  1.00  0.00     0.047 A 
ATOM     42  C   UNL     1       5.333   0.439  -4.326  1.00  0.00     0.004 A 
BRANCH  38  43
ATOM     43  C   UNL     1       5.459   0.628  -0.578  1.00  0.00     0.007 C 
ATOM     44  C   UNL     1       6.718   0.566  -0.114  1.00  0.00     0.008 C 
BRANCH  44  45
ATOM     45  C   UNL     1       7.186   0.990   1.260  1.00  0.00     0.170 C 
BRANCH  45  46
ATOM     46  O   UNL     1       6.146   1.745   1.888  1.00  0.00    -0.386 OA
ATOM     47  H   UNL     1       6.440   1.947   2.792  1.00  0.00     0.211 HD
ENDBRANCH  45  46
BRANCH  45  48
ATOM     48  C   UNL     1       7.586  -0.234   2.142  1.00  0.00     0.169 C 
BRANCH  48  49
ATOM     49  O   UNL     1       8.500  -1.100   1.465  1.00  0.00    -0.386 OA
ATOM     50  H   UNL     1       7.989  -1.559   0.776  1.00  0.00     0.211 HD
ENDBRANCH  48  49
BRANCH  48  51
ATOM     51  C   UNL     1       8.245   0.065   3.468  1.00  0.00     0.003 C 
ATOM     52  C   UNL     1       8.743   1.231   3.914  1.00  0.00    -0.032 C 
ATOM     53  C   UNL     1       9.390   1.396   5.253  1.00  0.00     0.035 C 
ENDBRANCH  48  51
ENDBRANCH  45  48
ENDBRANCH  44  45
ENDBRANCH  38  43
BRANCH  39  54
ATOM     54  O   UNL     1       2.865  -2.220  -3.582  1.00  0.00    -0.496 OA
ATOM     55  C   UNL     1       2.351  -2.477  -4.883  1.00  0.00     0.278 C 
ENDBRANCH  39  54
ENDBRANCH  36  37
ENDBRANCH   1  36
TORSDOF 17
