REMARK SMILES CC(=O)O[C@@H]1[C@@H](O)[C@H]([C@@H](O)CO)O[C@H]1c1c(O)cc(O)c2c(=O)cc(-c3ccc(O)cc3)oc12
REMARK SMILES IDX 5 1 6 2 8 3 13 4 14 5 4 6 2 7 3 8 1 9 7 10 15 12 16 13 34 14
REMARK SMILES IDX 18 15 21 16 33 17 19 18 22 19 25 20 24 21 23 22 17 23 20 25
REMARK SMILES IDX 26 27 27 28 32 29 28 30 31 31 29 32 30 33 9 35 10 36 11 38
REMARK SMILES IDX 12 39
REMARK H PARENT 7 11 17 24 20 26 30 34 10 37 12 40
ROOT
ATOM      1  C   UNL     1      -1.052   1.216   0.257  1.00  0.00     0.241 C 
ATOM      2  C   UNL     1      -2.452   1.795   0.451  1.00  0.00     0.190 C 
ATOM      3  C   UNL     1      -3.318   1.128  -0.615  1.00  0.00     0.182 C 
ATOM      4  O   UNL     1      -2.411   0.866  -1.713  1.00  0.00    -0.360 OA
ATOM      5  C   UNL     1      -1.105   0.590  -1.151  1.00  0.00     0.200 C 
ENDROOT
BRANCH   1   6
ATOM      6  O   UNL     1      -0.734   0.181   1.208  1.00  0.00    -0.457 OA
BRANCH   6   7
ATOM      7  C   UNL     1      -0.427   0.597   2.462  1.00  0.00     0.303 C 
ATOM      8  O   UNL     1      -0.398   1.761   2.833  1.00  0.00    -0.253 OA
ATOM      9  C   UNL     1      -0.086  -0.573   3.333  1.00  0.00     0.139 C 
ENDBRANCH   6   7
ENDBRANCH   1   6
BRANCH   2  10
ATOM     10  O   UNL     1      -2.433   3.209   0.180  1.00  0.00    -0.386 OA
ATOM     11  H   UNL     1      -2.046   3.356  -0.704  1.00  0.00     0.211 HD
ENDBRANCH   2  10
BRANCH   5  12
ATOM     12  C   UNL     1      -0.005   1.126  -2.053  1.00  0.00     0.070 A 
ATOM     13  C   UNL     1      -0.224   2.089  -3.050  1.00  0.00     0.129 A 
ATOM     14  C   UNL     1       1.321   0.685  -1.856  1.00  0.00     0.152 A 
ATOM     15  C   UNL     1       0.821   2.602  -3.818  1.00  0.00     0.093 A 
ATOM     16  C   UNL     1       2.370   1.186  -2.630  1.00  0.00     0.107 A 
ATOM     17  O   UNL     1       1.530  -0.247  -0.865  1.00  0.00    -0.455 OA
ATOM     18  C   UNL     1       2.118   2.147  -3.611  1.00  0.00     0.134 A 
ATOM     19  C   UNL     1       3.729   0.690  -2.377  1.00  0.00     0.197 C 
ATOM     20  C   UNL     1       2.817  -0.687  -0.610  1.00  0.00     0.138 C 
ATOM     21  C   UNL     1       3.897  -0.292  -1.297  1.00  0.00     0.100 C 
ATOM     22  O   UNL     1       4.684   1.086  -3.036  1.00  0.00    -0.289 OA
BRANCH  13  23
ATOM     23  O   UNL     1      -1.470   2.581  -3.323  1.00  0.00    -0.507 OA
ATOM     24  H   UNL     1      -2.117   1.927  -2.981  1.00  0.00     0.293 HD
ENDBRANCH  13  23
BRANCH  18  25
ATOM     25  O   UNL     1       3.097   2.684  -4.401  1.00  0.00    -0.507 OA
ATOM     26  H   UNL     1       3.956   2.272  -4.154  1.00  0.00     0.293 HD
ENDBRANCH  18  25
BRANCH  20  27
ATOM     27  C   UNL     1       2.903  -1.665   0.492  1.00  0.00     0.018 A 
ATOM     28  C   UNL     1       1.918  -2.657   0.626  1.00  0.00     0.016 A 
ATOM     29  C   UNL     1       3.932  -1.610   1.447  1.00  0.00     0.016 A 
ATOM     30  C   UNL     1       1.969  -3.577   1.676  1.00  0.00     0.047 A 
ATOM     31  C   UNL     1       3.984  -2.530   2.499  1.00  0.00     0.047 A 
ATOM     32  C   UNL     1       3.001  -3.507   2.603  1.00  0.00     0.115 A 
BRANCH  32  33
ATOM     33  O   UNL     1       3.009  -4.421   3.613  1.00  0.00    -0.508 OA
ATOM     34  H   UNL     1       3.793  -4.270   4.166  1.00  0.00     0.293 HD
ENDBRANCH  32  33
ENDBRANCH  20  27
ENDBRANCH   5  12
BRANCH   3  35
ATOM     35  C   UNL     1      -4.030  -0.169  -0.192  1.00  0.00     0.171 C 
BRANCH  35  36
ATOM     36  O   UNL     1      -3.136  -1.087   0.447  1.00  0.00    -0.388 OA
ATOM     37  H   UNL     1      -3.715  -1.802   0.783  1.00  0.00     0.211 HD
ENDBRANCH  35  36
BRANCH  35  38
ATOM     38  C   UNL     1      -5.200   0.099   0.762  1.00  0.00     0.190 C 
BRANCH  38  39
ATOM     39  O   UNL     1      -5.805  -1.156   1.084  1.00  0.00    -0.394 OA
ATOM     40  H   UNL     1      -6.556  -0.965   1.674  1.00  0.00     0.210 HD
ENDBRANCH  38  39
ENDBRANCH  35  38
ENDBRANCH   3  35
TORSDOF 12
