REMARK SMILES COC(=O)[C@]1(Cc2ccc(O)c([C@@H](O)C(C)(C)O)c2)OC(=O)C(O)=C1c1ccc(O)cc1
REMARK SMILES IDX 7 1 8 2 9 3 10 4 12 5 19 6 6 7 5 8 20 9 25 10 21 11 23 12
REMARK SMILES IDX 22 13 3 14 4 15 2 16 1 17 26 18 27 19 32 20 28 21 31 22
REMARK SMILES IDX 29 23 30 24 24 26 13 28 14 29 15 31 16 32 17 33 18 34 11 36
REMARK H PARENT 30 25 24 27 14 30 18 35 11 37
ROOT
ATOM      1  C   UNL     1       0.064  -0.115  -1.683  1.00  0.00    -0.042 A 
ATOM      2  C   UNL     1       0.451   1.071  -2.316  1.00  0.00     0.008 A 
ATOM      3  C   UNL     1      -0.311   2.226  -2.170  1.00  0.00     0.047 A 
ATOM      4  C   UNL     1      -1.466   2.192  -1.392  1.00  0.00     0.121 A 
ATOM      5  C   UNL     1      -1.899   1.023  -0.742  1.00  0.00     0.025 A 
ATOM      6  C   UNL     1      -1.117  -0.129  -0.919  1.00  0.00     0.014 A 
ENDROOT
BRANCH   1   7
ATOM      7  C   UNL     1       0.909  -1.360  -1.834  1.00  0.00     0.102 C 
BRANCH   7   8
ATOM      8  C   UNL     1       1.768  -1.799  -0.624  1.00  0.00     0.242 C 
ATOM      9  O   UNL     1       2.501  -2.982  -1.080  1.00  0.00    -0.436 OA
ATOM     10  C   UNL     1       2.873  -0.858  -0.217  1.00  0.00     0.064 C 
ATOM     11  C   UNL     1       3.821  -2.830  -0.829  1.00  0.00     0.375 C 
ATOM     12  C   UNL     1       4.053  -1.478  -0.314  1.00  0.00     0.210 C 
ATOM     13  O   UNL     1       4.701  -3.648  -1.026  1.00  0.00    -0.242 OA
BRANCH   8  14
ATOM     14  C   UNL     1       0.961  -2.390   0.554  1.00  0.00     0.355 C 
ATOM     15  O   UNL     1       1.203  -2.207   1.742  1.00  0.00    -0.247 OA
BRANCH  14  16
ATOM     16  O   UNL     1      -0.028  -3.223   0.106  1.00  0.00    -0.466 OA
ATOM     17  C   UNL     1      -0.732  -3.916   1.139  1.00  0.00     0.282 C 
ENDBRANCH  14  16
ENDBRANCH   8  14
BRANCH  10  18
ATOM     18  C   UNL     1       2.698   0.538   0.222  1.00  0.00    -0.014 A 
ATOM     19  C   UNL     1       1.678   0.928   1.101  1.00  0.00     0.012 A 
ATOM     20  C   UNL     1       3.549   1.540  -0.279  1.00  0.00     0.012 A 
ATOM     21  C   UNL     1       1.505   2.270   1.456  1.00  0.00     0.047 A 
ATOM     22  C   UNL     1       3.385   2.883   0.079  1.00  0.00     0.047 A 
ATOM     23  C   UNL     1       2.358   3.236   0.943  1.00  0.00     0.115 A 
BRANCH  23  24
ATOM     24  O   UNL     1       2.155   4.531   1.315  1.00  0.00    -0.508 OA
ATOM     25  H   UNL     1       2.893   5.068   0.981  1.00  0.00     0.293 HD
ENDBRANCH  23  24
ENDBRANCH  10  18
BRANCH  12  26
ATOM     26  O   UNL     1       5.300  -0.999  -0.025  1.00  0.00    -0.502 OA
ATOM     27  H   UNL     1       5.915  -1.747  -0.166  1.00  0.00     0.293 HD
ENDBRANCH  12  26
ENDBRANCH   7   8
ENDBRANCH   1   7
BRANCH   5  28
ATOM     28  C   UNL     1      -3.159   1.082   0.107  1.00  0.00     0.179 C 
BRANCH  28  29
ATOM     29  O   UNL     1      -4.284   1.360  -0.754  1.00  0.00    -0.385 OA
ATOM     30  H   UNL     1      -3.997   2.114  -1.307  1.00  0.00     0.211 HD
ENDBRANCH  28  29
BRANCH  28  31
ATOM     31  C   UNL     1      -3.597  -0.068   1.068  1.00  0.00     0.089 C 
ATOM     32  C   UNL     1      -2.562  -0.354   2.157  1.00  0.00     0.045 C 
ATOM     33  C   UNL     1      -4.062  -1.351   0.371  1.00  0.00     0.045 C 
BRANCH  31  34
ATOM     34  O   UNL     1      -4.774   0.413   1.769  1.00  0.00    -0.387 OA
ATOM     35  H   UNL     1      -5.334   0.809   1.070  1.00  0.00     0.211 HD
ENDBRANCH  31  34
ENDBRANCH  28  31
ENDBRANCH   5  28
BRANCH   4  36
ATOM     36  O   UNL     1      -2.228   3.325  -1.272  1.00  0.00    -0.508 OA
ATOM     37  H   UNL     1      -1.709   4.080  -1.600  1.00  0.00     0.293 HD
ENDBRANCH   4  36
TORSDOF 12
