REMARK SMILES Cc1cc(=O)oc2cc(O)c(O)cc12
REMARK SMILES IDX 1 1 2 2 3 3 4 4 5 5 6 6 7 7 8 8 9 9 11 10 13 11 14 12 12 13
REMARK SMILES IDX 10 15
REMARK H PARENT 12 14 10 16
ROOT
ATOM      1  C   UNL     1      -2.632  -0.858   0.871  1.00  0.00     0.045 C 
ATOM      2  C   UNL     1      -1.787   0.066   0.044  1.00  0.00    -0.033 C 
ATOM      3  C   UNL     1      -2.337   1.016  -0.726  1.00  0.00     0.098 C 
ATOM      4  C   UNL     1      -1.554   1.946  -1.554  1.00  0.00     0.336 C 
ATOM      5  O   UNL     1      -2.111   2.796  -2.240  1.00  0.00    -0.246 OA
ATOM      6  O   UNL     1      -0.178   1.810  -1.517  1.00  0.00    -0.423 OA
ATOM      7  C   UNL     1       0.436   0.823  -0.719  1.00  0.00     0.142 A 
ATOM      8  C   UNL     1       1.833   0.782  -0.762  1.00  0.00     0.098 A 
ATOM      9  C   UNL     1       2.485  -0.170   0.004  1.00  0.00     0.161 A 
ATOM     10  C   UNL     1       1.753  -1.055   0.792  1.00  0.00     0.158 A 
ATOM     11  C   UNL     1       0.362  -1.008   0.830  1.00  0.00     0.062 A 
ATOM     12  C   UNL     1      -0.323  -0.056   0.065  1.00  0.00     0.024 A 
ENDROOT
BRANCH  10  13
ATOM     13  O   UNL     1       2.403  -1.991   1.545  1.00  0.00    -0.504 OA
ATOM     14  H   UNL     1       3.353  -1.840   1.364  1.00  0.00     0.293 HD
ENDBRANCH  10  13
BRANCH   9  15
ATOM     15  O   UNL     1       3.847  -0.281   0.021  1.00  0.00    -0.504 OA
ATOM     16  H   UNL     1       4.217   0.397  -0.572  1.00  0.00     0.293 HD
ENDBRANCH   9  15
TORSDOF 2
