REMARK SMILES C=C1C(=O)O[C@@]23[C@H]1CC[C@@H](C)[C@@H]2CC[C@@]1(C)O[C@@H]31
REMARK SMILES IDX 11 1 10 2 9 3 8 4 7 5 2 6 1 7 3 8 4 9 5 10 6 11 12 12 13 13
REMARK SMILES IDX 14 14 15 15 18 16 17 17 16 18
REMARK H PARENT
ROOT
ATOM      1  C   UNL     1      -0.381  -3.285  -0.154  1.00  0.00     0.008 C 
ATOM      2  C   UNL     1      -0.455  -1.802   0.240  1.00  0.00    -0.007 C 
ATOM      3  C   UNL     1      -1.921  -1.478   0.621  1.00  0.00     0.004 C 
ATOM      4  C   UNL     1      -2.204   0.009   0.855  1.00  0.00     0.013 C 
ATOM      5  C   UNL     1      -1.688   0.778  -0.344  1.00  0.00     0.073 C 
ATOM      6  C   UNL     1      -1.785   2.249  -0.484  1.00  0.00     0.037 C 
ATOM      7  C   UNL     1      -2.552   3.145   0.143  1.00  0.00     0.021 C 
ATOM      8  C   UNL     1      -0.769   2.595  -1.524  1.00  0.00     0.334 C 
ATOM      9  O   UNL     1      -0.702   3.632  -2.156  1.00  0.00    -0.247 OA
ATOM     10  O   UNL     1       0.030   1.488  -1.687  1.00  0.00    -0.452 OA
ATOM     11  C   UNL     1      -0.191   0.614  -0.563  1.00  0.00     0.151 C 
ATOM     12  C   UNL     1       0.125  -0.870  -0.883  1.00  0.00     0.040 C 
ATOM     13  C   UNL     1       1.647  -1.125  -1.113  1.00  0.00     0.011 C 
ATOM     14  C   UNL     1       2.572   0.061  -0.814  1.00  0.00     0.038 C 
ATOM     15  C   UNL     1       2.167   0.720   0.469  1.00  0.00     0.096 C 
ATOM     16  C   UNL     1       0.699   1.054   0.600  1.00  0.00     0.195 C 
ATOM     17  O   UNL     1       1.685   2.061   0.325  1.00  0.00    -0.362 OA
ATOM     18  C   UNL     1       2.997   0.491   1.686  1.00  0.00     0.045 C 
ENDROOT
TORSDOF 0
