REMARK SMILES COc1cc2ccc(=O)oc2cc1O[C@@H]1O[C@H](CO)[C@@H](O)[C@H](O)[C@H]1O
REMARK SMILES IDX 15 1 24 2 22 3 20 4 17 5 16 6 14 7 13 8 3 9 4 10 12 11 5 12
REMARK SMILES IDX 11 13 6 14 10 15 7 16 8 17 9 18 2 19 1 20 25 21 23 23 18 25
REMARK SMILES IDX 19 26 21 28
REMARK H PARENT 25 22 23 24 19 27 21 29
ROOT
ATOM      1  C   UNL     1      -1.124  -1.336   0.625  1.00  0.00     0.339 C 
ATOM      2  C   UNL     1      -2.300  -1.475   1.622  1.00  0.00     0.214 C 
ATOM      3  C   UNL     1      -3.457  -0.512   1.292  1.00  0.00     0.180 C 
ATOM      4  C   UNL     1      -3.831  -0.632  -0.190  1.00  0.00     0.177 C 
ATOM      5  C   UNL     1      -2.597  -0.438  -1.092  1.00  0.00     0.179 C 
ATOM      6  O   UNL     1      -1.552  -1.359  -0.745  1.00  0.00    -0.332 OA
ENDROOT
BRANCH   1   7
ATOM      7  O   UNL     1      -0.378  -0.165   0.963  1.00  0.00    -0.458 OA
BRANCH   7   8
ATOM      8  C   UNL     1       0.923  -0.066   0.542  1.00  0.00     0.168 A 
ATOM      9  C   UNL     1       1.687   0.955   1.149  1.00  0.00     0.161 A 
ATOM     10  C   UNL     1       3.025   1.145   0.776  1.00  0.00     0.062 A 
ATOM     11  C   UNL     1       1.500  -0.870  -0.443  1.00  0.00     0.098 A 
ATOM     12  C   UNL     1       3.603   0.332  -0.204  1.00  0.00     0.022 A 
ATOM     13  C   UNL     1       2.830  -0.660  -0.798  1.00  0.00     0.142 A 
ATOM     14  C   UNL     1       4.986   0.494  -0.623  1.00  0.00     0.019 C 
ATOM     15  O   UNL     1       3.370  -1.498  -1.796  1.00  0.00    -0.423 OA
ATOM     16  C   UNL     1       5.485  -0.307  -1.569  1.00  0.00     0.094 C 
ATOM     17  C   UNL     1       4.686  -1.363  -2.215  1.00  0.00     0.336 C 
ATOM     18  O   UNL     1       5.179  -2.080  -3.078  1.00  0.00    -0.246 OA
BRANCH   9  19
ATOM     19  O   UNL     1       1.034   1.701   2.101  1.00  0.00    -0.493 OA
ATOM     20  C   UNL     1       1.728   2.805   2.665  1.00  0.00     0.278 C 
ENDBRANCH   9  19
ENDBRANCH   7   8
ENDBRANCH   1   7
BRANCH   2  21
ATOM     21  O   UNL     1      -2.787  -2.828   1.630  1.00  0.00    -0.384 OA
ATOM     22  H   UNL     1      -3.324  -2.935   0.813  1.00  0.00     0.211 HD
ENDBRANCH   2  21
BRANCH   3  23
ATOM     23  O   UNL     1      -3.161   0.849   1.607  1.00  0.00    -0.387 OA
ATOM     24  H   UNL     1      -2.819   0.874   2.520  1.00  0.00     0.211 HD
ENDBRANCH   3  23
BRANCH   5  25
ATOM     25  C   UNL     1      -2.105   1.013  -1.210  1.00  0.00     0.191 C 
BRANCH  25  26
ATOM     26  O   UNL     1      -3.169   1.891  -1.569  1.00  0.00    -0.394 OA
ATOM     27  H   UNL     1      -3.509   2.259  -0.731  1.00  0.00     0.210 HD
ENDBRANCH  25  26
ENDBRANCH   5  25
BRANCH   4  28
ATOM     28  O   UNL     1      -4.370  -1.954  -0.407  1.00  0.00    -0.387 OA
ATOM     29  H   UNL     1      -4.646  -1.996  -1.342  1.00  0.00     0.211 HD
ENDBRANCH   4  28
TORSDOF 8
