REMARK SMILES CC1=C[C@H]2[C@@H](CC1)[C@H](C)CC[C@H]2[C@@H](C)C(=O)O
REMARK SMILES IDX 15 1 16 2 13 3 14 4 12 5 8 6 10 7 5 8 11 9 4 10 6 11 3 12
REMARK SMILES IDX 7 13 2 14 9 15 1 16 17 17
REMARK H PARENT 17 18
ROOT
ATOM      1  C   UNL     1       3.120  -0.494  -1.227  1.00  0.00     0.306 C 
ATOM      2  O   UNL     1       3.442  -1.384  -1.998  1.00  0.00    -0.252 OA
ENDROOT
BRANCH   1   3
ATOM      3  C   UNL     1       1.699  -0.044  -0.936  1.00  0.00     0.099 C 
ATOM      4  C   UNL     1       1.546   1.329  -1.593  1.00  0.00     0.020 C 
BRANCH   3   5
ATOM      5  C   UNL     1       1.386  -0.103   0.592  1.00  0.00     0.010 C 
ATOM      6  C   UNL     1      -0.729  -2.050   0.436  1.00  0.00    -0.011 C 
ATOM      7  C   UNL     1       0.403  -2.375   1.413  1.00  0.00     0.004 C 
ATOM      8  C   UNL     1      -1.182  -0.579   0.607  1.00  0.00    -0.001 C 
ATOM      9  C   UNL     1       1.652  -1.524   1.168  1.00  0.00     0.005 C 
ATOM     10  C   UNL     1      -0.026   0.358   1.056  1.00  0.00     0.019 C 
ATOM     11  C   UNL     1      -1.897  -0.055  -0.648  1.00  0.00     0.009 C 
ATOM     12  C   UNL     1      -0.318   1.821   0.838  1.00  0.00    -0.024 C 
ATOM     13  C   UNL     1      -2.401   1.377  -0.462  1.00  0.00     0.030 C 
ATOM     14  C   UNL     1      -1.393   2.292   0.184  1.00  0.00    -0.077 C 
ATOM     15  C   UNL     1      -1.894  -3.023   0.640  1.00  0.00     0.008 C 
ATOM     16  C   UNL     1      -1.664   3.763   0.054  1.00  0.00     0.039 C 
ENDBRANCH   3   5
ENDBRANCH   1   3
BRANCH   1  17
ATOM     17  O   UNL     1       4.060   0.202  -0.561  1.00  0.00    -0.481 OA
ATOM     18  H   UNL     1       4.904  -0.192  -0.864  1.00  0.00     0.296 HD
ENDBRANCH   1  17
TORSDOF 3
