REMARK SMILES COc1cc2oc(-c3ccc(O)cc3)cc(=O)c2c(O)c1OC
REMARK SMILES IDX 3 1 21 2 19 3 18 4 5 5 4 6 6 7 7 8 15 9 16 10 17 11 2 12
REMARK SMILES IDX 1 13 22 14 23 15 20 16 8 18 9 19 14 20 10 21 13 22 11 23
REMARK SMILES IDX 12 24
REMARK H PARENT 20 17 12 25
ROOT
ATOM      1  C   UNL     1      -2.870   0.720   0.819  1.00  0.00     0.168 A 
ATOM      2  C   UNL     1      -3.415  -0.371   0.117  1.00  0.00     0.204 A 
ATOM      3  C   UNL     1      -2.603  -1.199  -0.670  1.00  0.00     0.176 A 
ATOM      4  C   UNL     1      -1.230  -0.947  -0.735  1.00  0.00     0.111 A 
ATOM      5  C   UNL     1      -0.681   0.121  -0.029  1.00  0.00     0.146 A 
ATOM      6  C   UNL     1      -1.494   0.953   0.747  1.00  0.00     0.098 A 
ATOM      7  O   UNL     1       0.660   0.419  -0.051  1.00  0.00    -0.456 OA
ATOM      8  C   UNL     1       1.505  -0.382  -0.803  1.00  0.00     0.138 C 
ATOM      9  C   UNL     1       1.097  -1.429  -1.534  1.00  0.00     0.100 C 
ATOM     10  C   UNL     1      -0.329  -1.782  -1.539  1.00  0.00     0.197 C 
ATOM     11  O   UNL     1      -0.750  -2.736  -2.184  1.00  0.00    -0.289 OA
ENDROOT
BRANCH   1  12
ATOM     12  O   UNL     1      -3.754   1.472   1.549  1.00  0.00    -0.493 OA
ATOM     13  C   UNL     1      -3.264   2.664   2.147  1.00  0.00     0.278 C 
ENDBRANCH   1  12
BRANCH   2  14
ATOM     14  O   UNL     1      -4.776  -0.573   0.143  1.00  0.00    -0.490 OA
ATOM     15  C   UNL     1      -5.107  -1.543   1.135  1.00  0.00     0.278 C 
ENDBRANCH   2  14
BRANCH   3  16
ATOM     16  O   UNL     1      -3.187  -2.238  -1.351  1.00  0.00    -0.504 OA
ATOM     17  H   UNL     1      -2.494  -2.701  -1.871  1.00  0.00     0.293 HD
ENDBRANCH   3  16
BRANCH   8  18
ATOM     18  C   UNL     1       2.921   0.030  -0.763  1.00  0.00     0.018 A 
ATOM     19  C   UNL     1       3.955  -0.909  -0.610  1.00  0.00     0.016 A 
ATOM     20  C   UNL     1       3.258   1.389  -0.852  1.00  0.00     0.016 A 
ATOM     21  C   UNL     1       5.292  -0.501  -0.562  1.00  0.00     0.047 A 
ATOM     22  C   UNL     1       4.593   1.798  -0.805  1.00  0.00     0.047 A 
ATOM     23  C   UNL     1       5.598   0.851  -0.662  1.00  0.00     0.115 A 
BRANCH  23  24
ATOM     24  O   UNL     1       6.886   1.294  -0.621  1.00  0.00    -0.508 OA
ATOM     25  H   UNL     1       7.477   0.529  -0.520  1.00  0.00     0.293 HD
ENDBRANCH  23  24
ENDBRANCH   8  18
TORSDOF 5
