REMARK SMILES O=c1ccc2ccc(O)cc2o1
REMARK SMILES IDX 9 1 8 3 6 4 7 5 5 6 11 7 4 8 10 9 12 10 3 11 2 12 1 13
REMARK H PARENT 9 2
ROOT
ATOM      1  O   UNL     1      -3.293   1.462   0.073  1.00  0.00    -0.508 OA
ATOM      2  H   UNL     1      -3.101   2.398   0.253  1.00  0.00     0.293 HD
ENDROOT
BRANCH   1   3
ATOM      3  C   UNL     1      -2.117   0.774   0.017  1.00  0.00     0.119 A 
ATOM      4  C   UNL     1      -1.005  -1.349  -0.303  1.00  0.00     0.016 A 
ATOM      5  C   UNL     1      -2.181  -0.594  -0.235  1.00  0.00     0.047 A 
ATOM      6  C   UNL     1       0.232  -0.727  -0.118  1.00  0.00     0.018 A 
ATOM      7  C   UNL     1       0.267   0.645   0.132  1.00  0.00     0.142 A 
ATOM      8  C   UNL     1       1.483  -1.464  -0.179  1.00  0.00     0.019 C 
ATOM      9  C   UNL     1      -0.896   1.410   0.203  1.00  0.00     0.094 A 
ATOM     10  O   UNL     1       1.492   1.314   0.325  1.00  0.00    -0.423 OA
ATOM     11  C   UNL     1       2.637  -0.817   0.006  1.00  0.00     0.094 C 
ATOM     12  C   UNL     1       2.699   0.631   0.271  1.00  0.00     0.336 C 
ATOM     13  O   UNL     1       3.777   1.192   0.436  1.00  0.00    -0.246 OA
ENDBRANCH   1   3
TORSDOF 1
