REMARK SMILES COc1ccc(-c2cc(=O)c3c(O)c(OC)c(OC)cc3o2)cc1O
REMARK SMILES IDX 7 1 8 2 9 3 10 4 11 5 12 6 14 7 17 8 20 9 21 10 22 11 6 12
REMARK SMILES IDX 3 13 24 14 4 15 23 16 5 17 2 18 1 19 25 20 13 22 18 24 19 25
REMARK SMILES IDX 15 26 16 27
REMARK H PARENT 25 21 13 23
ROOT
ATOM      1  C   UNL     1       0.817   0.305  -0.667  1.00  0.00     0.138 C 
ATOM      2  C   UNL     1       0.470   0.992  -1.765  1.00  0.00     0.100 C 
ATOM      3  C   UNL     1      -0.956   1.163  -2.077  1.00  0.00     0.197 C 
ATOM      4  O   UNL     1      -1.323   1.793  -3.063  1.00  0.00    -0.289 OA
ATOM      5  C   UNL     1      -1.923   0.550  -1.158  1.00  0.00     0.111 A 
ATOM      6  C   UNL     1      -3.301   0.654  -1.365  1.00  0.00     0.176 A 
ATOM      7  C   UNL     1      -4.178   0.052  -0.453  1.00  0.00     0.204 A 
ATOM      8  C   UNL     1      -3.689  -0.673   0.649  1.00  0.00     0.168 A 
ATOM      9  C   UNL     1      -2.308  -0.760   0.844  1.00  0.00     0.098 A 
ATOM     10  C   UNL     1      -1.432  -0.150  -0.059  1.00  0.00     0.146 A 
ATOM     11  O   UNL     1      -0.089  -0.282   0.202  1.00  0.00    -0.456 OA
ENDROOT
BRANCH   1  12
ATOM     12  C   UNL     1       2.230   0.089  -0.301  1.00  0.00     0.021 A 
ATOM     13  C   UNL     1       4.926  -0.338   0.435  1.00  0.00     0.160 A 
ATOM     14  C   UNL     1       3.980  -1.365   0.512  1.00  0.00     0.158 A 
ATOM     15  C   UNL     1       4.514   0.916  -0.008  1.00  0.00     0.051 A 
ATOM     16  C   UNL     1       2.650  -1.166   0.156  1.00  0.00     0.062 A 
ATOM     17  C   UNL     1       3.175   1.127  -0.370  1.00  0.00     0.016 A 
BRANCH  13  18
ATOM     18  O   UNL     1       6.194  -0.688   0.820  1.00  0.00    -0.493 OA
ATOM     19  C   UNL     1       7.185   0.331   0.748  1.00  0.00     0.278 C 
ENDBRANCH  13  18
BRANCH  14  20
ATOM     20  O   UNL     1       4.350  -2.610   0.947  1.00  0.00    -0.504 OA
ATOM     21  H   UNL     1       5.305  -2.537   1.140  1.00  0.00     0.293 HD
ENDBRANCH  14  20
ENDBRANCH   1  12
BRANCH   6  22
ATOM     22  O   UNL     1      -3.829   1.332  -2.435  1.00  0.00    -0.504 OA
ATOM     23  H   UNL     1      -3.090   1.668  -2.989  1.00  0.00     0.293 HD
ENDBRANCH   6  22
BRANCH   8  24
ATOM     24  O   UNL     1      -4.631  -1.232   1.473  1.00  0.00    -0.493 OA
ATOM     25  C   UNL     1      -4.172  -2.108   2.494  1.00  0.00     0.278 C 
ENDBRANCH   8  24
BRANCH   7  26
ATOM     26  O   UNL     1      -5.535   0.097  -0.677  1.00  0.00    -0.490 OA
ATOM     27  C   UNL     1      -6.080   1.298  -0.133  1.00  0.00     0.278 C 
ENDBRANCH   7  26
TORSDOF 6
