REMARK SMILES COc1ccc(-c2oc3cc(OC)c(OC)c(O)c3c(=O)c2OC)cc1OC
REMARK SMILES IDX 7 1 22 2 20 3 21 4 19 5 17 6 14 7 11 8 10 9 9 10 8 11 6 12
REMARK SMILES IDX 3 13 26 14 4 15 25 16 5 17 2 18 1 19 27 20 28 21 23 22 24 23
REMARK SMILES IDX 18 24 12 26 13 27 15 28 16 29
REMARK H PARENT 18 25
ROOT
ATOM      1  C   UNL     1       0.423  -0.409  -0.166  1.00  0.00     0.180 C 
ATOM      2  C   UNL     1      -0.020  -1.640  -0.495  1.00  0.00     0.210 C 
ATOM      3  C   UNL     1      -1.493  -1.874  -0.455  1.00  0.00     0.239 C 
ATOM      4  O   UNL     1      -2.009  -2.963  -0.695  1.00  0.00    -0.285 OA
ATOM      5  C   UNL     1      -2.352  -0.733  -0.105  1.00  0.00     0.115 A 
ATOM      6  C   UNL     1      -3.745  -0.846  -0.058  1.00  0.00     0.177 A 
ATOM      7  C   UNL     1      -4.518   0.275   0.275  1.00  0.00     0.204 A 
ATOM      8  C   UNL     1      -3.909   1.503   0.590  1.00  0.00     0.168 A 
ATOM      9  C   UNL     1      -2.516   1.600   0.532  1.00  0.00     0.098 A 
ATOM     10  C   UNL     1      -1.747   0.484   0.186  1.00  0.00     0.146 A 
ATOM     11  O   UNL     1      -0.389   0.665   0.156  1.00  0.00    -0.452 OA
ENDROOT
BRANCH   1  12
ATOM     12  C   UNL     1       1.859  -0.056  -0.149  1.00  0.00     0.025 A 
ATOM     13  C   UNL     1       4.581   0.682  -0.105  1.00  0.00     0.160 A 
ATOM     14  C   UNL     1       4.143  -0.446   0.617  1.00  0.00     0.161 A 
ATOM     15  C   UNL     1       3.656   1.429  -0.840  1.00  0.00     0.051 A 
ATOM     16  C   UNL     1       2.787  -0.799   0.597  1.00  0.00     0.062 A 
ATOM     17  C   UNL     1       2.307   1.064  -0.859  1.00  0.00     0.016 A 
BRANCH  13  18
ATOM     18  O   UNL     1       5.922   0.964  -0.030  1.00  0.00    -0.493 OA
ATOM     19  C   UNL     1       6.400   2.094  -0.745  1.00  0.00     0.278 C 
ENDBRANCH  13  18
BRANCH  14  20
ATOM     20  O   UNL     1       5.109  -1.125   1.318  1.00  0.00    -0.493 OA
ATOM     21  C   UNL     1       4.733  -2.344   1.945  1.00  0.00     0.278 C 
ENDBRANCH  14  20
ENDBRANCH   1  12
BRANCH   2  22
ATOM     22  O   UNL     1       0.860  -2.664  -0.813  1.00  0.00    -0.490 OA
ATOM     23  C   UNL     1       0.505  -3.397  -1.982  1.00  0.00     0.278 C 
ENDBRANCH   2  22
BRANCH   6  24
ATOM     24  O   UNL     1      -4.392  -2.025  -0.333  1.00  0.00    -0.504 OA
ATOM     25  H   UNL     1      -3.719  -2.721  -0.502  1.00  0.00     0.293 HD
ENDBRANCH   6  24
BRANCH   8  26
ATOM     26  O   UNL     1      -4.752   2.533   0.914  1.00  0.00    -0.493 OA
ATOM     27  C   UNL     1      -4.166   3.723   1.424  1.00  0.00     0.278 C 
ENDBRANCH   8  26
BRANCH   7  28
ATOM     28  O   UNL     1      -5.884   0.158   0.381  1.00  0.00    -0.490 OA
ATOM     29  C   UNL     1      -6.491   0.348  -0.895  1.00  0.00     0.278 C 
ENDBRANCH   7  28
TORSDOF 7
