REMARK SMILES C=C1CC[C@H]2O[C@]2(C)CC[C@@H]2[C@@H]1CC2(C)C
REMARK SMILES IDX 10 1 9 2 7 3 5 4 6 5 8 6 4 7 11 9 12 10 14 11 13 12 15 13
REMARK SMILES IDX 16 14 2 15 1 16 3 17
REMARK H PARENT
REMARK Flexibility Score:   16.900
ROOT
ATOM      1  C   UNL     1      -0.070  -1.801   0.053  1.00  0.00     0.008 C 
ENDROOT
BRANCH   1   2
ATOM      2  C   UNL     1       1.439  -1.925  -0.180  1.00  0.00     0.038 C 
BRANCH   2   3
ATOM      3  C   UNL     1       2.231  -0.838   0.489  1.00  0.00     0.092 C 
ATOM      4  C   UNL     1       2.619   0.329  -0.394  1.00  0.00     0.151 C 
ATOM      5  O   UNL     1       3.577  -0.649   0.004  1.00  0.00    -0.366 OA
ATOM      6  C   UNL     1       2.182  -0.767   1.988  1.00  0.00     0.045 C 
BRANCH   4   7
ATOM      7  C   UNL     1       2.726   1.710   0.153  1.00  0.00     0.039 CG0
ATOM      8  G   UNL     1       1.350   2.269   0.560  1.00  0.00     0.000 G0
ENDBRANCH   4   7
ENDBRANCH   2   3
ENDBRANCH   1   2
BRANCH   1   9
ATOM      9  C   UNL     1      -0.717  -0.579  -0.622  1.00  0.00     0.002 C 
ATOM     10  C   UNL     1      -0.736   0.811   0.102  1.00  0.00     0.018 C 
ATOM     11  C   UNL     1      -2.298  -0.565  -0.540  1.00  0.00    -0.031 C 
ATOM     12  C   UNL     1      -2.223   0.967  -0.310  1.00  0.00     0.015 C 
ATOM     13  C   UNL     1      -2.964  -0.957  -1.859  1.00  0.00     0.011 C 
ATOM     14  C   UNL     1      -2.964  -1.281   0.639  1.00  0.00     0.011 C 
BRANCH  10  15
ATOM     15  C   UNL     1       0.222   1.870  -0.374  1.00  0.00    -0.074 C 
ATOM     16  C   UNL     1       0.110   2.427  -1.592  1.00  0.00     0.008 C 
BRANCH  15  17
ATOM     17  C   UNL     1       1.350   2.269   0.560  1.00  0.00     0.033 CG0
ATOM     18  G   UNL     1       2.726   1.710   0.153  1.00  0.00     0.000 G0
ENDBRANCH  15  17
ENDBRANCH  10  15
ENDBRANCH   1   9
TORSDOF 0
