REMARK SMILES COc1cc(-c2oc3cc(OC)c(OC)c(O)c3c(=O)c2OC)ccc1O
REMARK SMILES IDX 6 1 21 2 19 3 20 4 18 5 16 6 13 7 10 8 9 9 8 10 7 11 5 12
REMARK SMILES IDX 3 13 26 14 4 15 25 16 24 17 2 18 1 19 27 20 22 22 23 23
REMARK SMILES IDX 17 24 11 26 12 27 14 28 15 29
REMARK H PARENT 27 21 17 25
ROOT
ATOM      1  C   UNL     1       0.771   0.411   0.376  1.00  0.00     0.180 C 
ATOM      2  C   UNL     1       0.031   0.775   1.443  1.00  0.00     0.210 C 
ATOM      3  C   UNL     1      -1.280   0.091   1.638  1.00  0.00     0.239 C 
ATOM      4  O   UNL     1      -2.058   0.374   2.546  1.00  0.00    -0.285 OA
ATOM      5  C   UNL     1      -1.641  -0.967   0.684  1.00  0.00     0.115 A 
ATOM      6  C   UNL     1      -2.838  -1.682   0.793  1.00  0.00     0.177 A 
ATOM      7  C   UNL     1      -3.133  -2.681  -0.144  1.00  0.00     0.204 A 
ATOM      8  C   UNL     1      -2.233  -2.987  -1.180  1.00  0.00     0.168 A 
ATOM      9  C   UNL     1      -1.046  -2.257  -1.280  1.00  0.00     0.098 A 
ATOM     10  C   UNL     1      -0.757  -1.254  -0.349  1.00  0.00     0.146 A 
ATOM     11  O   UNL     1       0.429  -0.588  -0.520  1.00  0.00    -0.452 OA
ENDROOT
BRANCH   1  12
ATOM     12  C   UNL     1       2.078   1.029   0.062  1.00  0.00     0.025 A 
ATOM     13  C   UNL     1       3.452   2.990  -0.379  1.00  0.00     0.161 A 
ATOM     14  C   UNL     1       4.549   2.145  -0.576  1.00  0.00     0.157 A 
ATOM     15  C   UNL     1       2.214   2.424  -0.067  1.00  0.00     0.062 A 
ATOM     16  C   UNL     1       4.436   0.766  -0.464  1.00  0.00     0.051 A 
ATOM     17  C   UNL     1       3.198   0.208  -0.147  1.00  0.00     0.016 A 
BRANCH  13  18
ATOM     18  O   UNL     1       3.718   4.327  -0.524  1.00  0.00    -0.493 OA
ATOM     19  C   UNL     1       2.643   5.222  -0.260  1.00  0.00     0.278 C 
ENDBRANCH  13  18
BRANCH  14  20
ATOM     20  O   UNL     1       5.775   2.669  -0.887  1.00  0.00    -0.504 OA
ATOM     21  H   UNL     1       5.635   3.636  -0.916  1.00  0.00     0.293 HD
ENDBRANCH  14  20
ENDBRANCH   1  12
BRANCH   2  22
ATOM     22  O   UNL     1       0.444   1.782   2.303  1.00  0.00    -0.490 OA
ATOM     23  C   UNL     1       0.368   1.429   3.682  1.00  0.00     0.278 C 
ENDBRANCH   2  22
BRANCH   6  24
ATOM     24  O   UNL     1      -3.745  -1.439   1.794  1.00  0.00    -0.504 OA
ATOM     25  H   UNL     1      -3.397  -0.721   2.367  1.00  0.00     0.293 HD
ENDBRANCH   6  24
BRANCH   8  26
ATOM     26  O   UNL     1      -2.612  -3.988  -2.036  1.00  0.00    -0.493 OA
ATOM     27  C   UNL     1      -1.667  -4.413  -3.009  1.00  0.00     0.278 C 
ENDBRANCH   8  26
BRANCH   7  28
ATOM     28  O   UNL     1      -4.279  -3.430  -0.007  1.00  0.00    -0.490 OA
ATOM     29  C   UNL     1      -5.372  -2.772  -0.644  1.00  0.00     0.278 C 
ENDBRANCH   7  28
TORSDOF 7
