REMARK SMILES COc1cc2oc(-c3ccc(O)c(O)c3)c(OC)c(=O)c2c(O)c1OC
REMARK SMILES IDX 3 1 24 2 22 3 21 4 5 5 4 6 6 7 7 8 16 9 19 10 20 11 2 12
REMARK SMILES IDX 1 13 25 14 26 15 23 16 8 18 15 19 9 20 13 21 10 22 11 23
REMARK SMILES IDX 14 24 12 26 17 28 18 29
REMARK H PARENT 23 17 14 25 12 27
ROOT
ATOM      1  C   UNL     1      -2.562  -1.555  -1.797  1.00  0.00     0.168 A 
ATOM      2  C   UNL     1      -3.042  -2.109  -0.597  1.00  0.00     0.204 A 
ATOM      3  C   UNL     1      -2.395  -1.858   0.621  1.00  0.00     0.177 A 
ATOM      4  C   UNL     1      -1.270  -1.028   0.644  1.00  0.00     0.115 A 
ATOM      5  C   UNL     1      -0.804  -0.462  -0.537  1.00  0.00     0.146 A 
ATOM      6  C   UNL     1      -1.443  -0.721  -1.754  1.00  0.00     0.098 A 
ATOM      7  O   UNL     1       0.285   0.367  -0.585  1.00  0.00    -0.452 OA
ATOM      8  C   UNL     1       0.966   0.649   0.589  1.00  0.00     0.180 C 
ATOM      9  C   UNL     1       0.652   0.146   1.800  1.00  0.00     0.210 C 
ATOM     10  C   UNL     1      -0.551  -0.731   1.892  1.00  0.00     0.239 C 
ATOM     11  O   UNL     1      -0.960  -1.203   2.949  1.00  0.00    -0.285 OA
ENDROOT
BRANCH   1  12
ATOM     12  O   UNL     1      -3.260  -1.872  -2.933  1.00  0.00    -0.493 OA
ATOM     13  C   UNL     1      -2.709  -1.460  -4.176  1.00  0.00     0.278 C 
ENDBRANCH   1  12
BRANCH   2  14
ATOM     14  O   UNL     1      -4.112  -2.973  -0.636  1.00  0.00    -0.490 OA
ATOM     15  C   UNL     1      -5.320  -2.267  -0.356  1.00  0.00     0.278 C 
ENDBRANCH   2  14
BRANCH   3  16
ATOM     16  O   UNL     1      -2.897  -2.440   1.758  1.00  0.00    -0.504 OA
ATOM     17  H   UNL     1      -2.336  -2.175   2.520  1.00  0.00     0.293 HD
ENDBRANCH   3  16
BRANCH   8  18
ATOM     18  C   UNL     1       2.120   1.546   0.371  1.00  0.00     0.025 A 
ATOM     19  C   UNL     1       3.057   1.241  -0.627  1.00  0.00     0.062 A 
ATOM     20  C   UNL     1       2.284   2.727   1.119  1.00  0.00     0.016 A 
ATOM     21  C   UNL     1       4.131   2.093  -0.846  1.00  0.00     0.158 A 
ATOM     22  C   UNL     1       3.370   3.580   0.893  1.00  0.00     0.051 A 
ATOM     23  C   UNL     1       4.291   3.253  -0.093  1.00  0.00     0.157 A 
BRANCH  21  24
ATOM     24  O   UNL     1       5.040   1.781  -1.817  1.00  0.00    -0.504 OA
ATOM     25  H   UNL     1       5.692   2.510  -1.786  1.00  0.00     0.293 HD
ENDBRANCH  21  24
BRANCH  23  26
ATOM     26  O   UNL     1       5.373   4.043  -0.364  1.00  0.00    -0.504 OA
ATOM     27  H   UNL     1       5.352   4.803   0.243  1.00  0.00     0.293 HD
ENDBRANCH  23  26
ENDBRANCH   8  18
BRANCH   9  28
ATOM     28  O   UNL     1       1.387   0.466   2.932  1.00  0.00    -0.490 OA
ATOM     29  C   UNL     1       1.768  -0.667   3.708  1.00  0.00     0.278 C 
ENDBRANCH   9  28
TORSDOF 7
