REMARK SMILES CC12CCC(CC1=O)C2(C)C
REMARK SMILES IDX 10 1 9 2 5 3 4 4 3 5 2 6 7 7 8 8 6 9 1 10 11 11
REMARK H PARENT
ROOT
ATOM      1  C   UNL     1       1.630  -1.163  -0.499  1.00  0.00     0.012 C 
ATOM      2  C   UNL     1       0.736  -0.146   0.237  1.00  0.00    -0.020 C 
ATOM      3  C   UNL     1       0.624   1.227  -0.483  1.00  0.00     0.003 C 
ATOM      4  C   UNL     1      -0.088   0.867  -1.812  1.00  0.00     0.005 C 
ATOM      5  C   UNL     1      -1.079  -0.242  -1.393  1.00  0.00     0.015 C 
ATOM      6  C   UNL     1      -0.791  -0.408   0.117  1.00  0.00     0.032 C 
ATOM      7  C   UNL     1      -1.331   0.892   0.722  1.00  0.00     0.139 C 
ATOM      8  O   UNL     1      -2.364   1.013   1.362  1.00  0.00    -0.299 OA
ATOM      9  C   UNL     1      -0.387   2.026   0.376  1.00  0.00     0.080 C 
ATOM     10  C   UNL     1      -1.342  -1.669   0.739  1.00  0.00     0.020 C 
ATOM     11  C   UNL     1       1.263  -0.064   1.684  1.00  0.00     0.012 C 
ENDROOT
TORSDOF 0
