REMARK SMILES COc1cc2ccc(=O)oc2cc1O
REMARK SMILES IDX 3 1 13 2 12 3 11 4 5 5 4 6 6 7 7 8 8 9 9 10 10 11 2 12 1 13
REMARK SMILES IDX 14 14
REMARK H PARENT 14 15
ROOT
ATOM      1  C   UNL     1      -1.369  -0.547   0.088  1.00  0.00     0.161 A 
ATOM      2  C   UNL     1      -0.724  -1.705   0.548  1.00  0.00     0.161 A 
ATOM      3  C   UNL     1       0.657  -1.778   0.658  1.00  0.00     0.098 A 
ATOM      4  C   UNL     1       1.404  -0.663   0.298  1.00  0.00     0.142 A 
ATOM      5  C   UNL     1       0.798   0.507  -0.163  1.00  0.00     0.022 A 
ATOM      6  C   UNL     1      -0.598   0.563  -0.268  1.00  0.00     0.062 A 
ATOM      7  C   UNL     1       1.641   1.637  -0.523  1.00  0.00     0.019 C 
ATOM      8  C   UNL     1       2.968   1.533  -0.405  1.00  0.00     0.094 C 
ATOM      9  C   UNL     1       3.628   0.308   0.080  1.00  0.00     0.336 C 
ATOM     10  O   UNL     1       4.849   0.253   0.174  1.00  0.00    -0.246 OA
ATOM     11  O   UNL     1       2.805  -0.757   0.417  1.00  0.00    -0.423 OA
ENDROOT
BRANCH   1  12
ATOM     12  O   UNL     1      -2.736  -0.633   0.037  1.00  0.00    -0.493 OA
ATOM     13  C   UNL     1      -3.434   0.519  -0.423  1.00  0.00     0.278 C 
ENDBRANCH   1  12
BRANCH   2  14
ATOM     14  O   UNL     1      -1.458  -2.805   0.903  1.00  0.00    -0.504 OA
ATOM     15  H   UNL     1      -2.390  -2.550   0.754  1.00  0.00     0.293 HD
ENDBRANCH   2  14
TORSDOF 2
