REMARK SMILES C[C@@H]1CC[C@H]2[C@@H](C)C(=O)O[C@@H]3O[C@@]4(C)CC[C@@H]1[C@]32O4
REMARK SMILES IDX 1 1 2 2 3 3 4 4 5 5 6 6 8 7 9 8 10 9 11 10 18 11 17 12 16 13
REMARK SMILES IDX 15 14 13 15 12 16 19 17 14 18 7 19
REMARK H PARENT
ROOT
ATOM      1  C   UNL     1      -1.137   3.428  -0.667  1.00  0.00     0.008 C 
ATOM      2  C   UNL     1      -0.401   2.238  -0.044  1.00  0.00    -0.008 C 
ATOM      3  C   UNL     1       1.110   2.397  -0.273  1.00  0.00     0.004 C 
ATOM      4  C   UNL     1       1.916   1.225   0.283  1.00  0.00     0.008 C 
ATOM      5  C   UNL     1       1.435  -0.115  -0.296  1.00  0.00     0.042 C 
ATOM      6  C   UNL     1       2.193  -1.338   0.237  1.00  0.00     0.102 C 
ATOM      7  C   UNL     1       1.892  -1.604   1.697  1.00  0.00     0.311 C 
ATOM      8  O   UNL     1       2.748  -1.985   2.490  1.00  0.00    -0.252 OA
ATOM      9  O   UNL     1       0.606  -1.493   2.086  1.00  0.00    -0.432 OA
ATOM     10  C   UNL     1      -0.361  -0.675   1.411  1.00  0.00     0.346 C 
ATOM     11  C   UNL     1      -0.057  -0.307  -0.044  1.00  0.00     0.140 C 
ATOM     12  C   UNL     1      -0.893   0.883  -0.601  1.00  0.00     0.031 C 
ATOM     13  C   UNL     1      -2.407   0.661  -0.385  1.00  0.00     0.012 C 
ATOM     14  C   UNL     1      -2.809  -0.799  -0.635  1.00  0.00     0.066 C 
ATOM     15  C   UNL     1      -1.760  -1.744  -0.040  1.00  0.00     0.171 C 
ATOM     16  O   UNL     1      -1.594  -1.410   1.342  1.00  0.00    -0.308 OA
ATOM     17  O   UNL     1      -0.523  -1.487  -0.721  1.00  0.00    -0.336 OA
ATOM     18  C   UNL     1      -2.137  -3.205  -0.188  1.00  0.00     0.075 C 
ATOM     19  C   UNL     1       3.703  -1.236  -0.001  1.00  0.00     0.020 C 
ENDROOT
TORSDOF 0
