REMARK SMILES C[C@H]1[C@@H](O)O[C@@H]2O[C@@]3(C)CC[C@H]4[C@H](C)CC[C@@H]1[C@@]24OO3
REMARK SMILES IDX 14 1 13 2 15 3 16 4 17 5 2 6 3 7 5 8 6 9 18 10 12 11 8 12
REMARK SMILES IDX 7 13 20 14 19 15 9 16 1 17 11 18 4 20 10 22
REMARK H PARENT 4 21
REMARK Flexibility Score:    0.900
ROOT
ATOM      1  C   UNL     1      -2.362  -2.457  -1.284  1.00  0.00     0.008 C 
ATOM      2  C   UNL     1      -1.131  -1.599  -0.987  1.00  0.00    -0.008 C 
ATOM      3  C   UNL     1       0.114  -2.512  -0.919  1.00  0.00     0.004 C 
ATOM      4  C   UNL     1       1.408  -1.780  -0.548  1.00  0.00     0.007 C 
ATOM      5  C   UNL     1       1.277  -0.835   0.672  1.00  0.00     0.038 C 
ATOM      6  C   UNL     1       2.532   0.041   0.936  1.00  0.00     0.049 C 
ATOM      7  C   UNL     1       2.674   1.197  -0.071  1.00  0.00     0.253 C 
ATOM      8  O   UNL     1       1.476   1.932  -0.231  1.00  0.00    -0.320 OA
ATOM      9  C   UNL     1       0.344   1.121  -0.566  1.00  0.00     0.292 C 
ATOM     10  C   UNL     1       0.032   0.080   0.536  1.00  0.00     0.161 C 
ATOM     11  C   UNL     1      -1.216  -0.823   0.342  1.00  0.00     0.033 C 
ATOM     12  C   UNL     1      -1.512   2.205   0.360  1.00  0.00     0.201 C 
ATOM     13  O   UNL     1      -0.754   1.975  -0.821  1.00  0.00    -0.315 OA
ATOM     14  O   UNL     1      -0.756   2.102   1.576  1.00  0.00    -0.200 OA
ATOM     15  O   UNL     1      -0.202   0.748   1.794  1.00  0.00    -0.221 OA
ATOM     16  C   UNL     1      -1.959   3.668   0.273  1.00  0.00     0.079 C 
ATOM     17  C   UNL     1       3.817  -0.782   1.043  1.00  0.00     0.013 C 
ENDROOT
BRANCH  11  18
ATOM     18  C   UNL     1      -2.546  -0.142   0.714  1.00  0.00     0.013 CG0
ATOM     19  G   UNL     1      -2.753   1.306   0.295  1.00  0.00     0.000 G0
ENDBRANCH  11  18
BRANCH   7  20
ATOM     20  O   UNL     1       3.115   0.743  -1.337  1.00  0.00    -0.368 OA
ATOM     21  H   UNL     1       3.410   1.545  -1.801  1.00  0.00     0.213 HD
ENDBRANCH   7  20
BRANCH  12  22
ATOM     22  C   UNL     1      -2.753   1.306   0.295  1.00  0.00     0.069 CG0
ATOM     23  G   UNL     1      -2.546  -0.142   0.714  1.00  0.00     0.000 G0
ENDBRANCH  12  22
TORSDOF 1
