REMARK SMILES C[C@@H]1CC[C@H]2[C@@H](C)C(=O)O[C@@H]3O[C@@]4(C)CC[C@@H]1[C@]32OO4
REMARK SMILES IDX 1 1 2 2 3 3 4 4 5 5 6 6 8 7 9 8 10 9 11 10 18 11 17 12 13 13
REMARK SMILES IDX 12 14 20 15 19 16 14 17 7 18 16 19 15 21
REMARK H PARENT
REMARK Flexibility Score:    0.900
ROOT
ATOM      1  C   UNL     1      -0.876   3.321  -1.193  1.00  0.00     0.008 C 
ATOM      2  C   UNL     1      -0.829   1.798  -1.021  1.00  0.00    -0.008 C 
ATOM      3  C   UNL     1      -2.257   1.271  -0.832  1.00  0.00     0.004 C 
ATOM      4  C   UNL     1      -2.299  -0.239  -0.629  1.00  0.00     0.008 C 
ATOM      5  C   UNL     1      -1.433  -0.660   0.566  1.00  0.00     0.045 C 
ATOM      6  C   UNL     1      -1.423  -2.177   0.827  1.00  0.00     0.102 C 
ATOM      7  C   UNL     1      -0.622  -2.943  -0.211  1.00  0.00     0.311 C 
ATOM      8  O   UNL     1      -0.981  -4.022  -0.670  1.00  0.00    -0.252 OA
ATOM      9  O   UNL     1       0.588  -2.428  -0.519  1.00  0.00    -0.432 OA
ATOM     10  C   UNL     1       0.752  -1.006  -0.651  1.00  0.00     0.349 C 
ATOM     11  C   UNL     1       0.017  -0.166   0.428  1.00  0.00     0.172 C 
ATOM     12  C   UNL     1       0.091   1.363   0.153  1.00  0.00     0.034 C 
ATOM     13  C   UNL     1       2.650  -0.364   0.581  1.00  0.00     0.202 C 
ATOM     14  O   UNL     1       2.153  -0.709  -0.713  1.00  0.00    -0.305 OA
ATOM     15  O   UNL     1       1.890  -1.018   1.605  1.00  0.00    -0.200 OA
ATOM     16  O   UNL     1       0.611  -0.326   1.740  1.00  0.00    -0.220 OA
ATOM     17  C   UNL     1       4.073  -0.902   0.689  1.00  0.00     0.079 C 
ATOM     18  C   UNL     1      -2.831  -2.760   0.970  1.00  0.00     0.020 C 
ENDROOT
BRANCH  12  19
ATOM     19  C   UNL     1       1.538   1.874  -0.059  1.00  0.00     0.013 CG0
ATOM     20  G   UNL     1       2.638   1.171   0.752  1.00  0.00     0.000 G0
ENDBRANCH  12  19
BRANCH  13  21
ATOM     21  C   UNL     1       2.638   1.171   0.752  1.00  0.00     0.069 CG0
ATOM     22  G   UNL     1       1.538   1.874  -0.059  1.00  0.00     0.000 G0
ENDBRANCH  13  21
TORSDOF 0
