REMARK SMILES C=C1C(=O)O[C@@H]2O[C@@]3(C)CC[C@H]4[C@H](C)CC[C@@H]1[C@@]24OO3
REMARK SMILES IDX 14 1 13 2 15 3 16 4 17 5 2 6 1 7 3 8 4 9 5 10 6 11 18 12
REMARK SMILES IDX 12 13 8 14 7 15 20 16 19 17 9 18 11 19 10 21
REMARK H PARENT
REMARK Flexibility Score:    0.900
ROOT
ATOM      1  C   UNL     1      -2.173  -2.763   0.099  1.00  0.00     0.008 C 
ATOM      2  C   UNL     1      -1.540  -1.403   0.431  1.00  0.00    -0.008 C 
ATOM      3  C   UNL     1      -2.679  -0.374   0.539  1.00  0.00     0.004 C 
ATOM      4  C   UNL     1      -2.177   1.030   0.830  1.00  0.00     0.012 C 
ATOM      5  C   UNL     1      -1.139   1.477  -0.206  1.00  0.00     0.068 C 
ATOM      6  C   UNL     1      -0.652   2.862   0.103  1.00  0.00     0.036 C 
ATOM      7  C   UNL     1      -1.024   3.952  -0.590  1.00  0.00     0.020 C 
ATOM      8  C   UNL     1       0.292   3.026   1.227  1.00  0.00     0.336 C 
ATOM      9  O   UNL     1       0.513   4.112   1.747  1.00  0.00    -0.247 OA
ATOM     10  O   UNL     1       0.826   1.888   1.708  1.00  0.00    -0.429 OA
ATOM     11  C   UNL     1       0.905   0.636   0.990  1.00  0.00     0.350 C 
ATOM     12  C   UNL     1       0.060   0.514  -0.298  1.00  0.00     0.176 C 
ATOM     13  C   UNL     1      -0.475  -0.934  -0.611  1.00  0.00     0.035 C 
ATOM     14  C   UNL     1       2.533  -0.414  -0.383  1.00  0.00     0.202 C 
ATOM     15  O   UNL     1       2.287   0.398   0.754  1.00  0.00    -0.305 OA
ATOM     16  O   UNL     1       2.025   0.116  -1.617  1.00  0.00    -0.200 OA
ATOM     17  O   UNL     1       0.880   1.006  -1.384  1.00  0.00    -0.219 OA
ATOM     18  C   UNL     1       4.052  -0.485  -0.523  1.00  0.00     0.079 C 
ENDROOT
BRANCH  13  19
ATOM     19  C   UNL     1       0.611  -2.000  -0.889  1.00  0.00     0.013 CG0
ATOM     20  G   UNL     1       1.948  -1.819  -0.175  1.00  0.00     0.000 G0
ENDBRANCH  13  19
BRANCH  14  21
ATOM     21  C   UNL     1       1.948  -1.819  -0.175  1.00  0.00     0.069 CG0
ATOM     22  G   UNL     1       0.611  -2.000  -0.889  1.00  0.00     0.000 G0
ENDBRANCH  14  21
TORSDOF 0
