REMARK SMILES C=C(C(=O)O)[C@@H]1CC[C@@H](C)[C@@H]2CCC(C)=C[C@@H]21
REMARK SMILES IDX 2 1 1 2 6 3 9 4 8 5 11 6 7 7 17 8 12 9 16 10 13 11 14 12
REMARK SMILES IDX 10 13 15 14 3 15 4 16 5 17
REMARK H PARENT 5 18
ROOT
ATOM      1  C   UNL     1      -2.455  -1.372   0.791  1.00  0.00     0.033 C 
ATOM      2  C   UNL     1      -3.128  -1.596   1.938  1.00  0.00     0.020 C 
ENDROOT
BRANCH   1   3
ATOM      3  C   UNL     1      -1.589  -0.130   0.626  1.00  0.00     0.033 C 
ATOM      4  C   UNL     1       0.368   1.904  -0.309  1.00  0.00    -0.011 C 
ATOM      5  C   UNL     1      -1.143   2.054  -0.539  1.00  0.00     0.004 C 
ATOM      6  C   UNL     1       0.667   1.020   0.938  1.00  0.00    -0.000 C 
ATOM      7  C   UNL     1      -1.836   0.698  -0.644  1.00  0.00     0.009 C 
ATOM      8  C   UNL     1      -0.070  -0.355   0.889  1.00  0.00     0.023 C 
ATOM      9  C   UNL     1       2.169   0.763   1.153  1.00  0.00     0.009 C 
ATOM     10  C   UNL     1       0.633  -1.321  -0.046  1.00  0.00    -0.024 C 
ATOM     11  C   UNL     1       2.789  -0.052   0.016  1.00  0.00     0.030 C 
ATOM     12  C   UNL     1       1.911  -1.187  -0.449  1.00  0.00    -0.077 C 
ATOM     13  C   UNL     1       1.000   3.296  -0.197  1.00  0.00     0.008 C 
ATOM     14  C   UNL     1       2.556  -2.168  -1.385  1.00  0.00     0.039 C 
ENDBRANCH   1   3
BRANCH   1  15
ATOM     15  C   UNL     1      -2.640  -2.411  -0.248  1.00  0.00     0.331 C 
ATOM     16  O   UNL     1      -3.089  -3.531  -0.073  1.00  0.00    -0.247 OA
BRANCH  15  17
ATOM     17  O   UNL     1      -2.273  -2.020  -1.474  1.00  0.00    -0.478 OA
ATOM     18  H   UNL     1      -2.468  -2.801  -2.032  1.00  0.00     0.297 HD
ENDBRANCH  15  17
ENDBRANCH   1  15
TORSDOF 3
