REMARK SMILES COc1cc(-c2cc(=O)c3c(O)c(OC)c(OC)cc3o2)ccc1O
REMARK SMILES IDX 6 1 7 2 8 3 9 4 10 5 11 6 13 7 16 8 19 9 20 10 21 11 5 12
REMARK SMILES IDX 3 13 24 14 4 15 23 16 22 17 2 18 1 19 25 20 12 22 17 24
REMARK SMILES IDX 18 25 14 26 15 27
REMARK H PARENT 25 21 12 23
ROOT
ATOM      1  C   UNL     1       0.982   1.181   0.229  1.00  0.00     0.138 C 
ATOM      2  C   UNL     1       0.524   2.371  -0.185  1.00  0.00     0.100 C 
ATOM      3  C   UNL     1      -0.879   2.485  -0.606  1.00  0.00     0.197 C 
ATOM      4  O   UNL     1      -1.347   3.550  -0.992  1.00  0.00    -0.289 OA
ATOM      5  C   UNL     1      -1.700   1.269  -0.545  1.00  0.00     0.111 A 
ATOM      6  C   UNL     1      -3.046   1.271  -0.918  1.00  0.00     0.176 A 
ATOM      7  C   UNL     1      -3.783   0.082  -0.834  1.00  0.00     0.204 A 
ATOM      8  C   UNL     1      -3.179  -1.114  -0.403  1.00  0.00     0.168 A 
ATOM      9  C   UNL     1      -1.832  -1.097  -0.030  1.00  0.00     0.098 A 
ATOM     10  C   UNL     1      -1.098   0.092  -0.104  1.00  0.00     0.146 A 
ATOM     11  O   UNL     1       0.221   0.024   0.274  1.00  0.00    -0.456 OA
ENDROOT
BRANCH   1  12
ATOM     12  C   UNL     1       2.383   0.999   0.654  1.00  0.00     0.021 A 
ATOM     13  C   UNL     1       4.439  -0.308   0.588  1.00  0.00     0.161 A 
ATOM     14  C   UNL     1       5.023   0.614   1.462  1.00  0.00     0.157 A 
ATOM     15  C   UNL     1       3.115  -0.112   0.190  1.00  0.00     0.062 A 
ATOM     16  C   UNL     1       4.320   1.711   1.939  1.00  0.00     0.051 A 
ATOM     17  C   UNL     1       2.998   1.902   1.537  1.00  0.00     0.016 A 
BRANCH  13  18
ATOM     18  O   UNL     1       5.257  -1.339   0.205  1.00  0.00    -0.493 OA
ATOM     19  C   UNL     1       4.704  -2.293  -0.695  1.00  0.00     0.278 C 
ENDBRANCH  13  18
BRANCH  14  20
ATOM     20  O   UNL     1       6.318   0.451   1.873  1.00  0.00    -0.504 OA
ATOM     21  H   UNL     1       6.623  -0.365   1.430  1.00  0.00     0.293 HD
ENDBRANCH  14  20
ENDBRANCH   1  12
BRANCH   6  22
ATOM     22  O   UNL     1      -3.677   2.405  -1.364  1.00  0.00    -0.504 OA
ATOM     23  H   UNL     1      -3.025   3.140  -1.388  1.00  0.00     0.293 HD
ENDBRANCH   6  22
BRANCH   8  24
ATOM     24  O   UNL     1      -3.986  -2.220  -0.369  1.00  0.00    -0.493 OA
ATOM     25  C   UNL     1      -3.383  -3.466  -0.047  1.00  0.00     0.278 C 
ENDBRANCH   8  24
BRANCH   7  26
ATOM     26  O   UNL     1      -5.092   0.057  -1.254  1.00  0.00    -0.490 OA
ATOM     27  C   UNL     1      -5.954   0.465  -0.193  1.00  0.00     0.278 C 
ENDBRANCH   7  26
TORSDOF 6
