REMARK SMILES CC12CCC(CC1)C(C)(C)O2
REMARK SMILES IDX 9 1 8 2 5 3 4 4 3 5 2 6 11 7 7 8 6 9 1 10 10 11
REMARK H PARENT
ROOT
ATOM      1  C   UNL     1      -2.192   0.791  -0.863  1.00  0.00     0.042 C 
ATOM      2  C   UNL     1      -1.229   0.176   0.163  1.00  0.00     0.066 C 
ATOM      3  C   UNL     1      -0.621  -1.169  -0.334  1.00  0.00     0.021 C 
ATOM      4  C   UNL     1       0.188  -0.921  -1.622  1.00  0.00     0.009 C 
ATOM      5  C   UNL     1       1.194   0.208  -1.370  1.00  0.00     0.035 C 
ATOM      6  C   UNL     1       1.142   0.630   0.111  1.00  0.00     0.066 C 
ATOM      7  O   UNL     1      -0.178   1.139   0.392  1.00  0.00    -0.369 OA
ATOM      8  C   UNL     1       1.399  -0.585   1.023  1.00  0.00     0.035 C 
ATOM      9  C   UNL     1       0.387  -1.692   0.707  1.00  0.00     0.009 C 
ATOM     10  C   UNL     1       2.137   1.750   0.397  1.00  0.00     0.042 C 
ATOM     11  C   UNL     1      -1.991   0.013   1.487  1.00  0.00     0.042 C 
ENDROOT
TORSDOF 0
