REMARK SMILES COc1ccc(-c2oc3cc(OC)c(OC)c(O)c3c(=O)c2OC)cc1O
REMARK SMILES IDX 7 1 22 2 20 3 21 4 19 5 17 6 14 7 11 8 10 9 9 10 8 11 6 12
REMARK SMILES IDX 3 13 26 14 4 15 25 16 5 17 2 18 1 19 27 20 23 22 24 23 18 24
REMARK SMILES IDX 12 26 13 27 15 28 16 29
REMARK H PARENT 27 21 18 25
ROOT
ATOM      1  C   UNL     1       0.766   0.539  -0.004  1.00  0.00     0.180 C 
ATOM      2  C   UNL     1       0.467   1.716  -0.588  1.00  0.00     0.210 C 
ATOM      3  C   UNL     1      -0.975   2.093  -0.673  1.00  0.00     0.239 C 
ATOM      4  O   UNL     1      -1.370   3.152  -1.153  1.00  0.00    -0.285 OA
ATOM      5  C   UNL     1      -1.958   1.134  -0.148  1.00  0.00     0.115 A 
ATOM      6  C   UNL     1      -3.334   1.387  -0.195  1.00  0.00     0.177 A 
ATOM      7  C   UNL     1      -4.229   0.437   0.314  1.00  0.00     0.204 A 
ATOM      8  C   UNL     1      -3.761  -0.755   0.894  1.00  0.00     0.168 A 
ATOM      9  C   UNL     1      -2.386  -0.996   0.926  1.00  0.00     0.098 A 
ATOM     10  C   UNL     1      -1.494  -0.052   0.406  1.00  0.00     0.146 A 
ATOM     11  O   UNL     1      -0.163  -0.367   0.479  1.00  0.00    -0.452 OA
ENDROOT
BRANCH   1  12
ATOM     12  C   UNL     1       2.155   0.060   0.157  1.00  0.00     0.025 A 
ATOM     13  C   UNL     1       4.780  -0.925   0.480  1.00  0.00     0.160 A 
ATOM     14  C   UNL     1       4.407   0.327   0.980  1.00  0.00     0.158 A 
ATOM     15  C   UNL     1       3.824  -1.692  -0.182  1.00  0.00     0.051 A 
ATOM     16  C   UNL     1       3.116   0.823   0.829  1.00  0.00     0.062 A 
ATOM     17  C   UNL     1       2.520  -1.202  -0.338  1.00  0.00     0.016 A 
BRANCH  13  18
ATOM     18  O   UNL     1       6.086  -1.275   0.707  1.00  0.00    -0.493 OA
ATOM     19  C   UNL     1       6.504  -2.539   0.203  1.00  0.00     0.278 C 
ENDBRANCH  13  18
BRANCH  14  20
ATOM     20  O   UNL     1       5.322   1.101   1.643  1.00  0.00    -0.504 OA
ATOM     21  H   UNL     1       6.148   0.581   1.634  1.00  0.00     0.293 HD
ENDBRANCH  14  20
ENDBRANCH   1  12
BRANCH   2  22
ATOM     22  O   UNL     1       1.463   2.560  -1.056  1.00  0.00    -0.490 OA
ATOM     23  C   UNL     1       1.205   3.146  -2.327  1.00  0.00     0.278 C 
ENDBRANCH   2  22
BRANCH   6  24
ATOM     24  O   UNL     1      -3.846   2.544  -0.729  1.00  0.00    -0.504 OA
ATOM     25  H   UNL     1      -3.098   3.123  -0.997  1.00  0.00     0.293 HD
ENDBRANCH   6  24
BRANCH   8  26
ATOM     26  O   UNL     1      -4.717  -1.614   1.372  1.00  0.00    -0.493 OA
ATOM     27  C   UNL     1      -4.274  -2.717   2.151  1.00  0.00     0.278 C 
ENDBRANCH   8  26
BRANCH   7  28
ATOM     28  O   UNL     1      -5.578   0.703   0.325  1.00  0.00    -0.490 OA
ATOM     29  C   UNL     1      -6.162   0.325  -0.920  1.00  0.00     0.278 C 
ENDBRANCH   7  28
TORSDOF 7
