REMARK SMILES C=CC(C)(C)C(=O)C=C(C)C
REMARK SMILES IDX 6 1 7 2 8 3 9 4 10 5 11 6 3 7 4 8 5 9 2 10 1 11
REMARK H PARENT
ROOT
ATOM      1  C   UNL     1      -0.204   0.665  -0.212  1.00  0.00     0.164 C 
ATOM      2  O   UNL     1      -0.050   1.804  -0.654  1.00  0.00    -0.294 OA
ENDROOT
BRANCH   1   3
ATOM      3  C   UNL     1       0.965  -0.072   0.371  1.00  0.00     0.047 C 
ATOM      4  C   UNL     1       2.225  -0.030  -0.104  1.00  0.00    -0.073 C 
ATOM      5  C   UNL     1       2.667   0.723  -1.329  1.00  0.00     0.039 C 
ATOM      6  C   UNL     1       3.326  -0.782   0.594  1.00  0.00     0.039 C 
ENDBRANCH   1   3
BRANCH   1   7
ATOM      7  C   UNL     1      -1.592  -0.031  -0.161  1.00  0.00     0.045 C 
ATOM      8  C   UNL     1      -1.458  -1.474  -0.685  1.00  0.00     0.024 C 
ATOM      9  C   UNL     1      -2.566   0.723  -1.085  1.00  0.00     0.024 C 
BRANCH   7  10
ATOM     10  C   UNL     1      -2.187  -0.051   1.241  1.00  0.00    -0.020 C 
ATOM     11  C   UNL     1      -1.873   0.755   2.266  1.00  0.00     0.005 C 
ENDBRANCH   7  10
ENDBRANCH   1   7
TORSDOF 3
