REMARK SMILES CC1(C)CC[C@]23CO[C@@]4(C=C[C@@H]5[C@@]6(C)CC[C@H](O)[C@@](C)(CO)[C@@H]6CC[C@@]5(C)[C@]4(C)C[C@@H]2O)[C@@H]3C1
REMARK SMILES IDX 14 1 13 2 15 3 16 4 17 5 19 6 23 7 24 8 25 9 26 10 12 11
REMARK SMILES IDX 11 12 10 13 9 14 28 15 30 16 31 17 6 18 33 19 34 20 2 21
REMARK SMILES IDX 4 22 5 23 1 24 3 25 7 26 8 27 29 28 27 29 20 30 21 31 22 32
REMARK SMILES IDX 18 34 32 36
REMARK H PARENT 22 33 18 35 32 37
ROOT
ATOM      1  C   UNL     1      -2.964   2.339  -0.587  1.00  0.00     0.012 C 
ATOM      2  C   UNL     1      -2.744   0.817  -0.796  1.00  0.00    -0.022 C 
ATOM      3  C   UNL     1      -3.311   0.485  -2.226  1.00  0.00     0.010 C 
ATOM      4  C   UNL     1      -4.018  -0.862  -2.330  1.00  0.00     0.033 C 
ATOM      5  C   UNL     1      -5.185  -1.023  -1.344  1.00  0.00     0.123 C 
ATOM      6  C   UNL     1      -5.006  -0.286   0.030  1.00  0.00     0.020 C 
ATOM      7  C   UNL     1      -3.466  -0.118   0.260  1.00  0.00     0.006 C 
ATOM      8  C   UNL     1      -2.990   0.154   1.696  1.00  0.00     0.005 C 
ATOM      9  C   UNL     1      -1.486  -0.152   1.829  1.00  0.00     0.008 C 
ATOM     10  C   UNL     1      -0.581   0.574   0.790  1.00  0.00    -0.017 C 
ATOM     11  C   UNL     1      -1.200   0.466  -0.677  1.00  0.00     0.024 C 
ATOM     12  C   UNL     1      -0.258   1.104  -1.691  1.00  0.00    -0.024 C 
ATOM     13  C   UNL     1       1.066   1.243  -1.497  1.00  0.00     0.005 C 
ATOM     14  C   UNL     1       1.805   0.817  -0.251  1.00  0.00     0.096 C 
ATOM     15  C   UNL     1       0.912  -0.081   0.701  1.00  0.00     0.009 C 
ATOM     16  C   UNL     1       1.621  -0.181   2.079  1.00  0.00     0.043 C 
ATOM     17  C   UNL     1       3.144  -0.406   1.949  1.00  0.00     0.124 C 
ATOM     18  C   UNL     1       3.842   0.485   0.875  1.00  0.00     0.026 C 
ATOM     19  C   UNL     1       3.230   0.313  -0.517  1.00  0.00     0.037 C 
ATOM     20  C   UNL     1       3.609  -1.011  -1.158  1.00  0.00     0.014 C 
ATOM     21  C   UNL     1       5.161  -1.108  -1.333  1.00  0.00    -0.035 C 
ATOM     22  C   UNL     1       5.926  -0.010  -0.533  1.00  0.00     0.007 C 
ATOM     23  C   UNL     1       5.363   0.240   0.873  1.00  0.00     0.013 C 
ATOM     24  C   UNL     1       5.633  -2.503  -0.879  1.00  0.00     0.011 C 
ATOM     25  C   UNL     1       5.516  -0.950  -2.825  1.00  0.00     0.011 C 
ATOM     26  C   UNL     1       3.428   1.940   1.089  1.00  0.00     0.171 C 
ATOM     27  O   UNL     1       2.124   2.061   0.465  1.00  0.00    -0.369 OA
ATOM     28  C   UNL     1       0.804  -1.542   0.148  1.00  0.00     0.015 C 
ATOM     29  C   UNL     1      -0.516   2.057   1.282  1.00  0.00     0.013 C 
ATOM     30  C   UNL     1      -5.767   1.056   0.075  1.00  0.00     0.017 C 
ENDROOT
BRANCH   6  31
ATOM     31  C   UNL     1      -5.642  -1.194   1.120  1.00  0.00     0.165 C 
BRANCH  31  32
ATOM     32  O   UNL     1      -6.991  -1.528   0.791  1.00  0.00    -0.396 OA
ATOM     33  H   UNL     1      -7.568  -0.947   1.320  1.00  0.00     0.210 HD
ENDBRANCH  31  32
ENDBRANCH   6  31
BRANCH   5  34
ATOM     34  O   UNL     1      -6.402  -0.640  -1.981  1.00  0.00    -0.392 OA
ATOM     35  H   UNL     1      -7.111  -0.955  -1.386  1.00  0.00     0.210 HD
ENDBRANCH   5  34
BRANCH  17  36
ATOM     36  O   UNL     1       3.743  -0.164   3.225  1.00  0.00    -0.392 OA
ATOM     37  H   UNL     1       3.295  -0.733   3.875  1.00  0.00     0.210 HD
ENDBRANCH  17  36
TORSDOF 4
