REMARK SMILES CC1(C)CC[C@@]2(CO)C(=C3C=C[C@@H]4[C@@]5(C)CC[C@H](O)[C@@](C)(CO)[C@@H]5CC[C@@]4(C)[C@]3(C)C[C@@H]2O)C1
REMARK SMILES IDX 15 1 14 2 16 3 17 4 18 5 20 6 24 7 25 8 26 9 27 10 13 11
REMARK SMILES IDX 12 12 11 13 10 14 9 15 34 16 2 17 4 18 5 19 6 20 32 21 31 22
REMARK SMILES IDX 29 23 30 24 1 25 3 26 28 27 21 28 22 29 23 30 19 32 33 34
REMARK SMILES IDX 7 36 8 37
REMARK H PARENT 23 31 19 33 33 35 8 38
ROOT
ATOM      1  C   UNL     1      -2.842  -1.203  -1.685  1.00  0.00     0.012 C 
ATOM      2  C   UNL     1      -2.772  -0.836  -0.186  1.00  0.00    -0.022 C 
ATOM      3  C   UNL     1      -3.383  -2.039   0.620  1.00  0.00     0.010 C 
ATOM      4  C   UNL     1      -4.788  -1.809   1.184  1.00  0.00     0.033 C 
ATOM      5  C   UNL     1      -5.700  -1.018   0.254  1.00  0.00     0.123 C 
ATOM      6  C   UNL     1      -5.137   0.403  -0.088  1.00  0.00     0.020 C 
ATOM      7  C   UNL     1      -3.575   0.466   0.180  1.00  0.00     0.006 C 
ATOM      8  C   UNL     1      -2.899   1.748  -0.353  1.00  0.00     0.005 C 
ATOM      9  C   UNL     1      -1.451   1.895   0.138  1.00  0.00     0.008 C 
ATOM     10  C   UNL     1      -0.547   0.686  -0.206  1.00  0.00    -0.016 C 
ATOM     11  C   UNL     1      -1.271  -0.624   0.286  1.00  0.00     0.025 C 
ATOM     12  C   UNL     1      -0.347  -1.820   0.151  1.00  0.00    -0.022 C 
ATOM     13  C   UNL     1       0.992  -1.733   0.072  1.00  0.00     0.000 C 
ATOM     14  C   UNL     1       1.729  -0.466   0.078  1.00  0.00    -0.042 C 
ATOM     15  C   UNL     1       3.033  -0.376  -0.289  1.00  0.00    -0.055 C 
ATOM     16  C   UNL     1       3.947  -1.547  -0.602  1.00  0.00     0.038 C 
ATOM     17  C   UNL     1       5.029  -1.698   0.502  1.00  0.00    -0.032 C 
ATOM     18  C   UNL     1       5.465  -0.315   1.062  1.00  0.00     0.008 C 
ATOM     19  C   UNL     1       5.278   0.804   0.033  1.00  0.00     0.017 C 
ATOM     20  C   UNL     1       3.783   0.970  -0.394  1.00  0.00     0.041 C 
ATOM     21  C   UNL     1       3.114   2.035   0.525  1.00  0.00     0.127 C 
ATOM     22  C   UNL     1       1.607   2.114   0.274  1.00  0.00     0.045 C 
ATOM     23  C   UNL     1       0.887   0.757   0.531  1.00  0.00     0.001 C 
ATOM     24  C   UNL     1       0.770   0.655   2.091  1.00  0.00     0.017 C 
ATOM     25  C   UNL     1       4.489  -2.554   1.664  1.00  0.00     0.011 C 
ATOM     26  C   UNL     1       6.245  -2.426  -0.103  1.00  0.00     0.011 C 
ATOM     27  C   UNL     1      -0.320   0.687  -1.754  1.00  0.00     0.013 C 
ATOM     28  C   UNL     1      -5.520   0.827  -1.524  1.00  0.00     0.017 C 
ENDROOT
BRANCH   6  29
ATOM     29  C   UNL     1      -5.856   1.429   0.849  1.00  0.00     0.165 C 
BRANCH  29  30
ATOM     30  O   UNL     1      -5.638   1.139   2.222  1.00  0.00    -0.396 OA
ATOM     31  H   UNL     1      -6.064   1.845   2.738  1.00  0.00     0.210 HD
ENDBRANCH  29  30
ENDBRANCH   6  29
BRANCH   5  32
ATOM     32  O   UNL     1      -5.918  -1.819  -0.910  1.00  0.00    -0.392 OA
ATOM     33  H   UNL     1      -6.736  -1.509  -1.333  1.00  0.00     0.210 HD
ENDBRANCH   5  32
BRANCH  21  34
ATOM     34  O   UNL     1       3.661   3.348   0.374  1.00  0.00    -0.392 OA
ATOM     35  H   UNL     1       3.996   3.419  -0.546  1.00  0.00     0.210 HD
ENDBRANCH  21  34
BRANCH  20  36
ATOM     36  C   UNL     1       3.757   1.418  -1.889  1.00  0.00     0.170 C 
BRANCH  36  37
ATOM     37  O   UNL     1       4.352   2.704  -2.065  1.00  0.00    -0.395 OA
ATOM     38  H   UNL     1       4.373   2.872  -3.025  1.00  0.00     0.210 HD
ENDBRANCH  36  37
ENDBRANCH  20  36
TORSDOF 6
