REMARK SMILES CC1(C)CC[C@@]2(CO)C(=C3C=C[C@@H]4[C@@]5(C)CC[C@H](O)[C@@](C)(CO)[C@@H]5CC[C@@]4(C)[C@]3(C)C[C@H]2O)C1
REMARK SMILES IDX 15 1 14 2 16 3 17 4 18 5 20 6 24 7 25 8 26 9 27 10 13 11
REMARK SMILES IDX 12 12 11 13 10 14 9 15 34 16 2 17 4 18 5 19 6 20 32 21 31 22
REMARK SMILES IDX 29 23 30 24 1 25 3 26 28 27 21 28 22 29 23 30 19 32 33 34
REMARK SMILES IDX 7 36 8 37
REMARK H PARENT 23 31 19 33 33 35 8 38
ROOT
ATOM      1  C   UNL     1      -2.763  -1.609  -1.461  1.00  0.00     0.012 C 
ATOM      2  C   UNL     1      -2.757  -0.900  -0.090  1.00  0.00    -0.022 C 
ATOM      3  C   UNL     1      -3.377  -1.897   0.955  1.00  0.00     0.010 C 
ATOM      4  C   UNL     1      -4.808  -1.582   1.401  1.00  0.00     0.033 C 
ATOM      5  C   UNL     1      -5.694  -1.052   0.278  1.00  0.00     0.123 C 
ATOM      6  C   UNL     1      -5.145   0.266  -0.361  1.00  0.00     0.020 C 
ATOM      7  C   UNL     1      -3.597   0.431  -0.065  1.00  0.00     0.006 C 
ATOM      8  C   UNL     1      -2.924   1.572  -0.858  1.00  0.00     0.005 C 
ATOM      9  C   UNL     1      -1.499   1.867  -0.369  1.00  0.00     0.008 C 
ATOM     10  C   UNL     1      -0.561   0.636  -0.394  1.00  0.00    -0.016 C 
ATOM     11  C   UNL     1      -1.280  -0.541   0.368  1.00  0.00     0.025 C 
ATOM     12  C   UNL     1      -0.328  -1.708   0.555  1.00  0.00    -0.022 C 
ATOM     13  C   UNL     1       1.011  -1.604   0.499  1.00  0.00     0.000 C 
ATOM     14  C   UNL     1       1.725  -0.354   0.216  1.00  0.00    -0.042 C 
ATOM     15  C   UNL     1       3.033  -0.324  -0.144  1.00  0.00    -0.055 C 
ATOM     16  C   UNL     1       3.963  -1.526  -0.169  1.00  0.00     0.038 C 
ATOM     17  C   UNL     1       5.040  -1.408   0.943  1.00  0.00    -0.032 C 
ATOM     18  C   UNL     1       5.470   0.069   1.157  1.00  0.00     0.008 C 
ATOM     19  C   UNL     1       5.262   0.917  -0.101  1.00  0.00     0.017 C 
ATOM     20  C   UNL     1       3.767   0.970  -0.561  1.00  0.00     0.041 C 
ATOM     21  C   UNL     1       3.066   2.247  -0.006  1.00  0.00     0.127 C 
ATOM     22  C   UNL     1       1.548   2.200  -0.215  1.00  0.00     0.045 C 
ATOM     23  C   UNL     1       0.852   0.918   0.349  1.00  0.00     0.001 C 
ATOM     24  C   UNL     1       0.670   1.175   1.885  1.00  0.00     0.017 C 
ATOM     25  C   UNL     1       4.495  -1.965   2.272  1.00  0.00     0.011 C 
ATOM     26  C   UNL     1       6.260  -2.254   0.533  1.00  0.00     0.011 C 
ATOM     27  C   UNL     1      -0.283   0.274  -1.891  1.00  0.00     0.013 C 
ATOM     28  C   UNL     1      -5.483   0.333  -1.869  1.00  0.00     0.017 C 
ENDROOT
BRANCH   6  29
ATOM     29  C   UNL     1      -5.920   1.459   0.287  1.00  0.00     0.165 C 
BRANCH  29  30
ATOM     30  O   UNL     1      -5.752   1.498   1.698  1.00  0.00    -0.396 OA
ATOM     31  H   UNL     1      -6.215   2.292   2.019  1.00  0.00     0.210 HD
ENDBRANCH  29  30
ENDBRANCH   6  29
BRANCH   5  32
ATOM     32  O   UNL     1      -5.863  -2.082  -0.699  1.00  0.00    -0.392 OA
ATOM     33  H   UNL     1      -6.205  -2.867  -0.239  1.00  0.00     0.210 HD
ENDBRANCH   5  32
BRANCH  21  34
ATOM     34  O   UNL     1       3.339   2.485   1.376  1.00  0.00    -0.392 OA
ATOM     35  H   UNL     1       4.259   2.787   1.448  1.00  0.00     0.210 HD
ENDBRANCH  21  34
BRANCH  20  36
ATOM     36  C   UNL     1       3.754   1.040  -2.122  1.00  0.00     0.170 C 
BRANCH  36  37
ATOM     37  O   UNL     1       4.430   2.204  -2.594  1.00  0.00    -0.395 OA
ATOM     38  H   UNL     1       4.401   2.171  -3.566  1.00  0.00     0.210 HD
ENDBRANCH  36  37
ENDBRANCH  20  36
TORSDOF 6
