REMARK SMILES COc1cc2c(cc1OC)-c1cc3ccc4c(c3c[n+]1CC2)OCO4
REMARK SMILES IDX 3 1 8 2 7 3 6 4 5 5 4 6 22 7 21 8 20 9 11 10 12 11 13 12
REMARK SMILES IDX 14 13 15 14 16 15 17 16 18 17 19 18 23 19 24 20 25 21 2 22
REMARK SMILES IDX 1 23 9 24 10 25
REMARK H PARENT
ROOT
ATOM      1  C   UNL     1      -3.983   0.192  -0.303  1.00  0.00     0.161 A 
ATOM      2  C   UNL     1      -3.364   0.876   0.759  1.00  0.00     0.161 A 
ATOM      3  C   UNL     1      -1.970   0.823   0.904  1.00  0.00     0.065 A 
ATOM      4  C   UNL     1      -1.161   0.099   0.007  1.00  0.00     0.054 A 
ATOM      5  C   UNL     1      -1.800  -0.545  -1.071  1.00  0.00    -0.024 A 
ATOM      6  C   UNL     1      -3.196  -0.515  -1.213  1.00  0.00     0.055 A 
ATOM      7  C   UNL     1      -0.955  -1.292  -2.065  1.00  0.00     0.109 C 
ATOM      8  C   UNL     1       0.346  -0.534  -2.258  1.00  0.00     0.362 C 
ATOM      9  N   UNL     1       1.020  -0.343  -0.948  1.00  0.00    -0.197 N 
ATOM     10  C   UNL     1       0.305  -0.007   0.166  1.00  0.00     0.213 A 
ATOM     11  C   UNL     1       0.985   0.175   1.383  1.00  0.00     0.089 A 
ATOM     12  C   UNL     1       2.375   0.044   1.460  1.00  0.00    -0.002 A 
ATOM     13  C   UNL     1       3.086   0.225   2.671  1.00  0.00     0.013 A 
ATOM     14  C   UNL     1       4.478   0.090   2.718  1.00  0.00     0.051 A 
ATOM     15  C   UNL     1       5.134  -0.226   1.550  1.00  0.00     0.166 A 
ATOM     16  C   UNL     1       4.458  -0.407   0.368  1.00  0.00     0.179 A 
ATOM     17  C   UNL     1       3.075  -0.281   0.286  1.00  0.00     0.092 A 
ATOM     18  C   UNL     1       2.368  -0.466  -0.901  1.00  0.00     0.321 A 
ATOM     19  O   UNL     1       5.297  -0.714  -0.662  1.00  0.00    -0.453 OA
ATOM     20  C   UNL     1       6.579  -0.703   0.012  1.00  0.00     0.468 C 
ATOM     21  O   UNL     1       6.475  -0.394   1.415  1.00  0.00    -0.454 OA
ENDROOT
BRANCH   1  22
ATOM     22  O   UNL     1      -5.348   0.289  -0.367  1.00  0.00    -0.493 OA
ATOM     23  C   UNL     1      -6.028  -0.446  -1.375  1.00  0.00     0.278 C 
ENDBRANCH   1  22
BRANCH   2  24
ATOM     24  O   UNL     1      -4.206   1.562   1.597  1.00  0.00    -0.493 OA
ATOM     25  C   UNL     1      -3.649   2.261   2.700  1.00  0.00     0.278 C 
ENDBRANCH   2  24
TORSDOF 2
