REMARK SMILES COc1cc2c(cc1O)CC[n+]1cc3c4c(ccc3cc1-2)OCO4
REMARK SMILES IDX 3 1 8 2 7 3 6 4 10 5 11 6 12 7 21 8 5 9 4 10 20 11 19 12
REMARK SMILES IDX 18 13 17 14 16 15 15 16 14 17 13 18 24 19 23 20 22 21 2 22
REMARK SMILES IDX 1 23 9 24
REMARK H PARENT 9 25
ROOT
ATOM      1  C   UNL     1      -3.931  -0.247  -0.116  1.00  0.00     0.161 A 
ATOM      2  C   UNL     1      -4.165  -1.621  -0.063  1.00  0.00     0.157 A 
ATOM      3  C   UNL     1      -3.122  -2.534  -0.045  1.00  0.00     0.055 A 
ATOM      4  C   UNL     1      -1.804  -2.069  -0.085  1.00  0.00    -0.024 A 
ATOM      5  C   UNL     1      -0.662  -3.045  -0.084  1.00  0.00     0.109 C 
ATOM      6  C   UNL     1       0.444  -2.487  -0.961  1.00  0.00     0.362 C 
ATOM      7  N   UNL     1       0.833  -1.133  -0.484  1.00  0.00    -0.197 N 
ATOM      8  C   UNL     1      -0.112  -0.229  -0.088  1.00  0.00     0.213 A 
ATOM      9  C   UNL     1      -1.519  -0.686  -0.107  1.00  0.00     0.054 A 
ATOM     10  C   UNL     1      -2.610   0.213  -0.138  1.00  0.00     0.065 A 
ATOM     11  C   UNL     1       0.301   1.043   0.345  1.00  0.00     0.089 A 
ATOM     12  C   UNL     1       1.653   1.400   0.349  1.00  0.00    -0.002 A 
ATOM     13  C   UNL     1       2.098   2.675   0.776  1.00  0.00     0.013 A 
ATOM     14  C   UNL     1       3.457   3.007   0.767  1.00  0.00     0.051 A 
ATOM     15  C   UNL     1       4.349   2.053   0.331  1.00  0.00     0.166 A 
ATOM     16  C   UNL     1       3.933   0.811  -0.084  1.00  0.00     0.179 A 
ATOM     17  C   UNL     1       2.590   0.449  -0.087  1.00  0.00     0.092 A 
ATOM     18  C   UNL     1       2.148  -0.807  -0.498  1.00  0.00     0.321 A 
ATOM     19  O   UNL     1       4.976   0.024  -0.472  1.00  0.00    -0.453 OA
ATOM     20  C   UNL     1       6.096   0.917  -0.252  1.00  0.00     0.468 C 
ATOM     21  O   UNL     1       5.696   2.204   0.257  1.00  0.00    -0.454 OA
ENDROOT
BRANCH   1  22
ATOM     22  O   UNL     1      -5.060   0.527  -0.141  1.00  0.00    -0.493 OA
ATOM     23  C   UNL     1      -4.890   1.939  -0.185  1.00  0.00     0.278 C 
ENDBRANCH   1  22
BRANCH   2  24
ATOM     24  O   UNL     1      -5.440  -2.109  -0.035  1.00  0.00    -0.504 OA
ATOM     25  H   UNL     1      -6.028  -1.328  -0.051  1.00  0.00     0.293 HD
ENDBRANCH   2  24
TORSDOF 2
