REMARK SMILES COc1ccc2c(c1O)-c1c(O)c(OC)cc3c1[C@H](C2)[N+](C)(C)CC3
REMARK SMILES IDX 22 1 21 2 24 3 25 4 17 5 16 6 13 7 11 8 10 9 18 10 19 11
REMARK SMILES IDX 20 12 6 13 7 14 8 15 3 16 4 17 5 18 23 19 12 20 14 22 15 23
REMARK SMILES IDX 9 24 2 26 1 27
REMARK H PARENT 12 21 9 25
ROOT
ATOM      1  C   UNL     1      -2.800  -2.904   0.858  1.00  0.00     0.334 C 
ATOM      2  N   UNL     1      -2.624  -1.493   0.294  1.00  0.00    -0.322 N 
ATOM      3  C   UNL     1      -3.396  -0.532   1.217  1.00  0.00     0.268 C 
ATOM      4  C   UNL     1      -3.316   0.911   0.731  1.00  0.00     0.097 C 
ATOM      5  C   UNL     1      -1.920   1.349   0.382  1.00  0.00    -0.029 A 
ATOM      6  C   UNL     1      -1.687   2.713   0.163  1.00  0.00     0.055 A 
ATOM      7  C   UNL     1      -0.428   3.162  -0.220  1.00  0.00     0.161 A 
ATOM      8  C   UNL     1       0.625   2.235  -0.338  1.00  0.00     0.166 A 
ATOM      9  C   UNL     1       0.457   0.857  -0.077  1.00  0.00     0.041 A 
ATOM     10  C   UNL     1      -0.870   0.422   0.213  1.00  0.00     0.025 A 
ATOM     11  C   UNL     1      -1.118  -1.076   0.344  1.00  0.00     0.221 C 
ATOM     12  C   UNL     1      -0.278  -1.830  -0.714  1.00  0.00     0.106 C 
ATOM     13  C   UNL     1       1.182  -1.502  -0.513  1.00  0.00    -0.030 A 
ATOM     14  C   UNL     1       1.540  -0.179  -0.157  1.00  0.00     0.035 A 
ATOM     15  C   UNL     1       2.898   0.024   0.151  1.00  0.00     0.166 A 
ATOM     16  C   UNL     1       3.873  -0.984   0.020  1.00  0.00     0.161 A 
ATOM     17  C   UNL     1       3.493  -2.248  -0.411  1.00  0.00     0.051 A 
ATOM     18  C   UNL     1       2.149  -2.509  -0.670  1.00  0.00     0.009 A 
ATOM     19  C   UNL     1      -3.199  -1.460  -1.121  1.00  0.00     0.334 C 
ENDROOT
BRANCH   8  20
ATOM     20  O   UNL     1       1.818   2.745  -0.790  1.00  0.00    -0.504 OA
ATOM     21  H   UNL     1       2.527   2.305  -0.284  1.00  0.00     0.293 HD
ENDBRANCH   8  20
BRANCH   7  22
ATOM     22  O   UNL     1      -0.115   4.469  -0.489  1.00  0.00    -0.493 OA
ATOM     23  C   UNL     1      -1.152   5.437  -0.421  1.00  0.00     0.278 C 
ENDBRANCH   7  22
BRANCH  15  24
ATOM     24  O   UNL     1       3.326   1.241   0.636  1.00  0.00    -0.504 OA
ATOM     25  H   UNL     1       4.280   1.117   0.833  1.00  0.00     0.293 HD
ENDBRANCH  15  24
BRANCH  16  26
ATOM     26  O   UNL     1       5.145  -0.597   0.359  1.00  0.00    -0.493 OA
ATOM     27  C   UNL     1       6.184  -1.550   0.155  1.00  0.00     0.278 C 
ENDBRANCH  16  26
TORSDOF 4
