REMARK SMILES O=c1c2c3c(ccc2cc2n1CCc1cc4c(cc1-2)OCO4)OCO3
REMARK SMILES IDX 13 1 12 2 11 3 10 4 9 5 8 6 3 7 2 8 1 9 4 10 5 11 6 12 7 13
REMARK SMILES IDX 23 14 24 15 25 16 19 17 18 18 17 19 16 20 15 21 14 22 22 23
REMARK SMILES IDX 21 24 20 25
REMARK H PARENT
ROOT
ATOM      1  C   UNL     1       1.427  -2.612  -0.036  1.00  0.00     0.058 C 
ATOM      2  C   UNL     1       0.179  -2.352   0.799  1.00  0.00     0.131 C 
ATOM      3  N   UNL     1      -0.502  -1.116   0.406  1.00  0.00    -0.307 N 
ATOM      4  C   UNL     1       0.264   0.005   0.082  1.00  0.00     0.052 C 
ATOM      5  C   UNL     1      -0.336   1.149  -0.290  1.00  0.00     0.036 C 
ATOM      6  C   UNL     1      -1.794   1.253  -0.324  1.00  0.00    -0.007 A 
ATOM      7  C   UNL     1      -2.579   0.146   0.032  1.00  0.00     0.093 A 
ATOM      8  C   UNL     1      -1.905  -1.113   0.431  1.00  0.00     0.262 C 
ATOM      9  O   UNL     1      -2.566  -2.094   0.764  1.00  0.00    -0.269 OA
ATOM     10  C   UNL     1      -3.957   0.281  -0.009  1.00  0.00     0.179 A 
ATOM     11  C   UNL     1      -4.542   1.470  -0.389  1.00  0.00     0.166 A 
ATOM     12  C   UNL     1      -3.799   2.575  -0.746  1.00  0.00     0.051 A 
ATOM     13  C   UNL     1      -2.408   2.463  -0.712  1.00  0.00     0.013 A 
ATOM     14  O   UNL     1      -5.902   1.421  -0.371  1.00  0.00    -0.454 OA
ATOM     15  C   UNL     1      -6.119   0.065   0.065  1.00  0.00     0.468 C 
ATOM     16  O   UNL     1      -4.897  -0.657   0.292  1.00  0.00    -0.453 OA
ATOM     17  C   UNL     1       1.754  -0.116   0.108  1.00  0.00     0.005 A 
ATOM     18  C   UNL     1       2.606   0.998   0.223  1.00  0.00     0.061 A 
ATOM     19  C   UNL     1       3.971   0.791   0.214  1.00  0.00     0.166 A 
ATOM     20  C   UNL     1       4.518  -0.463   0.106  1.00  0.00     0.166 A 
ATOM     21  C   UNL     1       3.730  -1.586   0.014  1.00  0.00     0.055 A 
ATOM     22  C   UNL     1       2.336  -1.412   0.037  1.00  0.00    -0.033 A 
ATOM     23  O   UNL     1       5.877  -0.441   0.113  1.00  0.00    -0.454 OA
ATOM     24  C   UNL     1       6.125   0.974   0.242  1.00  0.00     0.468 C 
ATOM     25  O   UNL     1       4.919   1.764   0.306  1.00  0.00    -0.454 OA
ENDROOT
TORSDOF 0
