REMARK SMILES COc1ccc2c(c1O)-c1c(OC)c(OC)cc3c1C(C2)[N+](C)(C)CC3
REMARK SMILES IDX 23 1 22 2 25 3 26 4 18 5 17 6 14 7 11 8 10 9 19 10 20 11
REMARK SMILES IDX 21 12 6 13 7 14 8 15 3 16 4 17 5 18 24 19 12 20 13 21 15 22
REMARK SMILES IDX 16 23 9 24 2 26 1 27
REMARK H PARENT 9 25
ROOT
ATOM      1  C   UNL     1      -0.967  -2.807  -0.813  1.00  0.00     0.334 C 
ATOM      2  N   UNL     1      -1.951  -1.773  -1.358  1.00  0.00    -0.322 N 
ATOM      3  C   UNL     1      -3.152  -1.650  -0.336  1.00  0.00     0.268 C 
ATOM      4  C   UNL     1      -3.598  -0.193  -0.073  1.00  0.00     0.097 C 
ATOM      5  C   UNL     1      -2.414   0.592   0.430  1.00  0.00    -0.029 A 
ATOM      6  C   UNL     1      -2.469   1.470   1.507  1.00  0.00     0.055 A 
ATOM      7  C   UNL     1      -1.293   2.076   1.953  1.00  0.00     0.161 A 
ATOM      8  C   UNL     1      -0.056   1.718   1.363  1.00  0.00     0.169 A 
ATOM      9  C   UNL     1       0.031   0.747   0.345  1.00  0.00     0.041 A 
ATOM     10  C   UNL     1      -1.189   0.343  -0.212  1.00  0.00     0.025 A 
ATOM     11  C   UNL     1      -1.266  -0.389  -1.526  1.00  0.00     0.221 C 
ATOM     12  C   UNL     1       0.052  -0.350  -2.333  1.00  0.00     0.106 C 
ATOM     13  C   UNL     1       1.297  -0.406  -1.484  1.00  0.00    -0.030 A 
ATOM     14  C   UNL     1       1.276   0.105  -0.166  1.00  0.00     0.035 A 
ATOM     15  C   UNL     1       2.422  -0.149   0.611  1.00  0.00     0.166 A 
ATOM     16  C   UNL     1       3.599  -0.704   0.074  1.00  0.00     0.161 A 
ATOM     17  C   UNL     1       3.625  -1.080  -1.262  1.00  0.00     0.051 A 
ATOM     18  C   UNL     1       2.471  -0.952  -2.033  1.00  0.00     0.009 A 
ATOM     19  C   UNL     1      -2.502  -2.260  -2.692  1.00  0.00     0.334 C 
ENDROOT
BRANCH   8  20
ATOM     20  O   UNL     1       1.080   2.343   1.826  1.00  0.00    -0.492 OA
ATOM     21  C   UNL     1       1.330   3.537   1.088  1.00  0.00     0.278 C 
ENDBRANCH   8  20
BRANCH   7  22
ATOM     22  O   UNL     1      -1.230   3.007   2.958  1.00  0.00    -0.493 OA
ATOM     23  C   UNL     1      -2.433   3.340   3.637  1.00  0.00     0.278 C 
ENDBRANCH   7  22
BRANCH  15  24
ATOM     24  O   UNL     1       2.393   0.050   1.969  1.00  0.00    -0.504 OA
ATOM     25  H   UNL     1       3.308  -0.086   2.284  1.00  0.00     0.293 HD
ENDBRANCH  15  24
BRANCH  16  26
ATOM     26  O   UNL     1       4.630  -0.847   0.969  1.00  0.00    -0.493 OA
ATOM     27  C   UNL     1       5.877  -1.298   0.450  1.00  0.00     0.278 C 
ENDBRANCH  16  26
TORSDOF 4
