REMARK SMILES Cc1c2[n+](cc3cc4c(cc13)OCO4)CCc1cc3c(cc1-2)OCO3
REMARK SMILES IDX 1 1 2 2 3 3 22 4 21 5 20 6 19 7 18 8 17 9 16 10 15 11 4 12
REMARK SMILES IDX 5 13 6 14 7 15 8 16 9 17 10 18 11 19 12 20 13 21 14 22 25 23
REMARK SMILES IDX 24 24 23 25
REMARK H PARENT
ROOT
ATOM      1  C   UNL     1      -0.064   1.913   1.173  1.00  0.00     0.052 C 
ATOM      2  C   UNL     1      -0.576   0.746   0.355  1.00  0.00     0.029 A 
ATOM      3  C   UNL     1       0.318  -0.192  -0.228  1.00  0.00     0.216 A 
ATOM      4  C   UNL     1       1.778  -0.297   0.022  1.00  0.00     0.054 A 
ATOM      5  C   UNL     1       2.363  -0.030   1.274  1.00  0.00     0.066 A 
ATOM      6  C   UNL     1       3.735  -0.112   1.406  1.00  0.00     0.166 A 
ATOM      7  C   UNL     1       4.547  -0.472   0.363  1.00  0.00     0.166 A 
ATOM      8  C   UNL     1       4.031  -0.798  -0.868  1.00  0.00     0.055 A 
ATOM      9  C   UNL     1       2.637  -0.740  -1.025  1.00  0.00    -0.024 A 
ATOM     10  C   UNL     1       1.996  -1.200  -2.303  1.00  0.00     0.109 C 
ATOM     11  C   UNL     1       0.743  -1.972  -1.917  1.00  0.00     0.362 C 
ATOM     12  N   UNL     1      -0.172  -1.090  -1.137  1.00  0.00    -0.197 N 
ATOM     13  C   UNL     1      -1.498  -1.213  -1.362  1.00  0.00     0.317 A 
ATOM     14  C   UNL     1      -2.433  -0.408  -0.727  1.00  0.00     0.050 A 
ATOM     15  C   UNL     1      -3.806  -0.596  -0.975  1.00  0.00     0.065 A 
ATOM     16  C   UNL     1      -4.705   0.226  -0.337  1.00  0.00     0.166 A 
ATOM     17  C   UNL     1      -4.291   1.206   0.521  1.00  0.00     0.166 A 
ATOM     18  C   UNL     1      -2.953   1.419   0.784  1.00  0.00     0.060 A 
ATOM     19  C   UNL     1      -1.977   0.606   0.153  1.00  0.00     0.001 A 
ATOM     20  O   UNL     1      -5.327   1.904   1.052  1.00  0.00    -0.454 OA
ATOM     21  C   UNL     1      -6.451   1.249   0.425  1.00  0.00     0.468 C 
ATOM     22  O   UNL     1      -6.056   0.177  -0.461  1.00  0.00    -0.454 OA
ATOM     23  O   UNL     1       5.860  -0.492   0.707  1.00  0.00    -0.454 OA
ATOM     24  C   UNL     1       5.788  -0.090   2.093  1.00  0.00     0.468 C 
ATOM     25  O   UNL     1       4.434   0.137   2.545  1.00  0.00    -0.454 OA
ENDROOT
TORSDOF 0
