REMARK SMILES COc1cc2c(cc1O)CC[n+]1cc3c(OC)c(OC)ccc3cc1-2
REMARK SMILES IDX 18 1 15 2 14 3 13 4 12 5 25 6 24 7 23 8 22 9 21 10 5 11 4 12
REMARK SMILES IDX 3 13 8 14 7 15 6 16 10 17 11 18 19 19 20 20 16 21 17 22 2 23
REMARK SMILES IDX 1 24 9 25
REMARK H PARENT 9 26
ROOT
ATOM      1  C   UNL     1       1.398  -1.346   3.904  1.00  0.00     0.161 A 
ATOM      2  C   UNL     1       1.795  -1.592   2.574  1.00  0.00     0.174 A 
ATOM      3  C   UNL     1       1.122  -0.960   1.496  1.00  0.00     0.092 A 
ATOM      4  C   UNL     1       1.506  -1.136   0.163  1.00  0.00     0.321 A 
ATOM      5  N   UNL     1       0.855  -0.539  -0.864  1.00  0.00    -0.197 N 
ATOM      6  C   UNL     1      -0.206   0.286  -0.638  1.00  0.00     0.213 A 
ATOM      7  C   UNL     1      -0.635   0.487   0.682  1.00  0.00     0.089 A 
ATOM      8  C   UNL     1       0.024  -0.126   1.751  1.00  0.00    -0.002 A 
ATOM      9  C   UNL     1      -0.390   0.077   3.073  1.00  0.00     0.013 A 
ATOM     10  C   UNL     1       0.294  -0.521   4.135  1.00  0.00     0.051 A 
ATOM     11  C   UNL     1      -0.851   0.879  -1.826  1.00  0.00     0.054 A 
ATOM     12  C   UNL     1      -1.663   2.024  -1.753  1.00  0.00     0.065 A 
ATOM     13  C   UNL     1      -2.311   2.563  -2.877  1.00  0.00     0.161 A 
ATOM     14  C   UNL     1      -2.147   1.937  -4.113  1.00  0.00     0.157 A 
ATOM     15  C   UNL     1      -1.334   0.807  -4.223  1.00  0.00     0.055 A 
ATOM     16  C   UNL     1      -0.677   0.294  -3.094  1.00  0.00    -0.024 A 
ATOM     17  C   UNL     1       0.209  -0.914  -3.211  1.00  0.00     0.109 C 
ATOM     18  C   UNL     1       1.368  -0.762  -2.241  1.00  0.00     0.362 C 
ENDROOT
BRANCH   1  19
ATOM     19  O   UNL     1       2.139  -1.911   4.905  1.00  0.00    -0.493 OA
ATOM     20  C   UNL     1       1.804  -1.603   6.254  1.00  0.00     0.278 C 
ENDBRANCH   1  19
BRANCH   2  21
ATOM     21  O   UNL     1       2.857  -2.383   2.190  1.00  0.00    -0.492 OA
ATOM     22  C   UNL     1       3.139  -3.526   2.995  1.00  0.00     0.278 C 
ENDBRANCH   2  21
BRANCH  13  23
ATOM     23  O   UNL     1      -3.047   3.674  -2.571  1.00  0.00    -0.493 OA
ATOM     24  C   UNL     1      -3.745   4.336  -3.617  1.00  0.00     0.278 C 
ENDBRANCH  13  23
BRANCH  14  25
ATOM     25  O   UNL     1      -2.764   2.408  -5.235  1.00  0.00    -0.504 OA
ATOM     26  H   UNL     1      -2.575   1.835  -5.997  1.00  0.00     0.293 HD
ENDBRANCH  14  25
TORSDOF 4
