REMARK SMILES COc1ccc2c(c1OC)CN1CCc3cc4c(cc3C1C2)OCO4
REMARK SMILES IDX 3 1 8 2 7 3 6 4 22 5 21 6 20 7 19 8 18 9 17 10 16 11 15 12
REMARK SMILES IDX 14 13 13 14 12 15 11 16 25 17 24 18 23 19 5 20 4 21 2 22
REMARK SMILES IDX 1 23 9 24 10 25
REMARK H PARENT
ROOT
ATOM      1  C   UNL     1       3.971   0.743   0.575  1.00  0.00     0.161 A 
ATOM      2  C   UNL     1       3.073  -0.329   0.415  1.00  0.00     0.165 A 
ATOM      3  C   UNL     1       1.710  -0.098   0.174  1.00  0.00     0.015 A 
ATOM      4  C   UNL     1       1.246   1.221   0.063  1.00  0.00    -0.038 A 
ATOM      5  C   UNL     1      -0.235   1.452  -0.108  1.00  0.00     0.060 C 
ATOM      6  C   UNL     1      -1.014   0.312  -0.845  1.00  0.00     0.092 C 
ATOM      7  C   UNL     1      -2.414   0.117  -0.238  1.00  0.00    -0.023 A 
ATOM      8  C   UNL     1      -3.224   1.239   0.031  1.00  0.00     0.056 A 
ATOM      9  C   UNL     1      -4.475   1.039   0.576  1.00  0.00     0.166 A 
ATOM     10  C   UNL     1      -4.954  -0.218   0.846  1.00  0.00     0.166 A 
ATOM     11  C   UNL     1      -4.214  -1.346   0.575  1.00  0.00     0.054 A 
ATOM     12  C   UNL     1      -2.939  -1.181   0.006  1.00  0.00    -0.038 A 
ATOM     13  C   UNL     1      -2.123  -2.401  -0.329  1.00  0.00     0.051 C 
ATOM     14  C   UNL     1      -1.067  -2.079  -1.386  1.00  0.00     0.090 C 
ATOM     15  N   UNL     1      -0.231  -0.931  -1.037  1.00  0.00    -0.291 NA
ATOM     16  C   UNL     1       0.694  -1.207   0.067  1.00  0.00     0.125 C 
ATOM     17  O   UNL     1      -6.204  -0.195   1.381  1.00  0.00    -0.454 OA
ATOM     18  C   UNL     1      -6.456   1.225   1.418  1.00  0.00     0.468 C 
ATOM     19  O   UNL     1      -5.364   2.015   0.903  1.00  0.00    -0.454 OA
ATOM     20  C   UNL     1       2.137   2.288   0.203  1.00  0.00     0.008 A 
ATOM     21  C   UNL     1       3.492   2.050   0.452  1.00  0.00     0.051 A 
ENDROOT
BRANCH   1  22
ATOM     22  O   UNL     1       5.273   0.413   0.854  1.00  0.00    -0.493 OA
ATOM     23  C   UNL     1       6.169   1.476   1.146  1.00  0.00     0.278 C 
ENDBRANCH   1  22
BRANCH   2  24
ATOM     24  O   UNL     1       3.499  -1.628   0.564  1.00  0.00    -0.493 OA
ATOM     25  C   UNL     1       4.174  -2.065  -0.616  1.00  0.00     0.278 C 
ENDBRANCH   2  24
TORSDOF 2
