REMARK SMILES COc1cc2c(cc1O)-c1cc3ccc(OC)c(OC)c3c[n+]1CC2
REMARK SMILES IDX 15 1 18 2 21 3 22 4 23 5 10 6 11 7 12 8 13 9 14 10 6 11 7 12
REMARK SMILES IDX 8 13 3 14 4 15 5 16 25 17 24 18 16 19 17 20 19 21 20 22 9 23
REMARK SMILES IDX 2 25 1 26
REMARK H PARENT 9 24
ROOT
ATOM      1  C   UNL     1      -4.394  -0.224   0.657  1.00  0.00     0.161 A 
ATOM      2  C   UNL     1      -3.511   0.098  -0.392  1.00  0.00     0.174 A 
ATOM      3  C   UNL     1      -2.107   0.021  -0.198  1.00  0.00     0.092 A 
ATOM      4  C   UNL     1      -1.189   0.380  -1.190  1.00  0.00     0.321 A 
ATOM      5  N   UNL     1       0.150   0.307  -1.000  1.00  0.00    -0.197 N 
ATOM      6  C   UNL     1       0.667  -0.153   0.174  1.00  0.00     0.213 A 
ATOM      7  C   UNL     1      -0.212  -0.519   1.203  1.00  0.00     0.089 A 
ATOM      8  C   UNL     1      -1.596  -0.434   1.027  1.00  0.00    -0.002 A 
ATOM      9  C   UNL     1      -2.483  -0.789   2.049  1.00  0.00     0.013 A 
ATOM     10  C   UNL     1      -3.864  -0.680   1.867  1.00  0.00     0.051 A 
ATOM     11  C   UNL     1       2.139  -0.191   0.282  1.00  0.00     0.054 A 
ATOM     12  C   UNL     1       2.803  -0.989   1.224  1.00  0.00     0.065 A 
ATOM     13  C   UNL     1       4.193  -0.962   1.321  1.00  0.00     0.158 A 
ATOM     14  C   UNL     1       4.977  -0.152   0.500  1.00  0.00     0.160 A 
ATOM     15  C   UNL     1       4.340   0.636  -0.453  1.00  0.00     0.055 A 
ATOM     16  C   UNL     1       2.937   0.603  -0.573  1.00  0.00    -0.024 A 
ATOM     17  C   UNL     1       2.246   1.447  -1.610  1.00  0.00     0.109 C 
ATOM     18  C   UNL     1       1.038   0.686  -2.129  1.00  0.00     0.362 C 
ENDROOT
BRANCH   1  19
ATOM     19  O   UNL     1      -5.732  -0.042   0.441  1.00  0.00    -0.493 OA
ATOM     20  C   UNL     1      -6.633  -0.290   1.515  1.00  0.00     0.278 C 
ENDBRANCH   1  19
BRANCH   2  21
ATOM     21  O   UNL     1      -3.885   0.559  -1.636  1.00  0.00    -0.492 OA
ATOM     22  C   UNL     1      -5.094   0.032  -2.180  1.00  0.00     0.278 C 
ENDBRANCH   2  21
BRANCH  13  23
ATOM     23  O   UNL     1       4.775  -1.764   2.264  1.00  0.00    -0.504 OA
ATOM     24  H   UNL     1       5.738  -1.607   2.188  1.00  0.00     0.293 HD
ENDBRANCH  13  23
BRANCH  14  25
ATOM     25  O   UNL     1       6.323  -0.231   0.725  1.00  0.00    -0.493 OA
ATOM     26  C   UNL     1       7.163   0.605  -0.064  1.00  0.00     0.278 C 
ENDBRANCH  14  25
TORSDOF 4
