REMARK SMILES COc1cc2c(cc1OC)-c1cc3ccc(OC)c(OC)c3c[n+]1CC2
REMARK SMILES IDX 16 1 19 2 22 3 23 4 24 5 11 6 12 7 13 8 14 9 15 10 6 11 7 12
REMARK SMILES IDX 8 13 3 14 4 15 5 16 26 17 25 18 17 19 18 20 20 21 21 22 9 23
REMARK SMILES IDX 10 24 2 25 1 26
REMARK H PARENT
ROOT
ATOM      1  C   UNL     1      -4.601   0.549  -0.132  1.00  0.00     0.161 A 
ATOM      2  C   UNL     1      -3.753  -0.569  -0.010  1.00  0.00     0.174 A 
ATOM      3  C   UNL     1      -2.343  -0.404  -0.005  1.00  0.00     0.092 A 
ATOM      4  C   UNL     1      -1.461  -1.477   0.156  1.00  0.00     0.321 A 
ATOM      5  N   UNL     1      -0.116  -1.317   0.150  1.00  0.00    -0.197 N 
ATOM      6  C   UNL     1       0.444  -0.082   0.007  1.00  0.00     0.213 A 
ATOM      7  C   UNL     1      -0.399   1.024  -0.170  1.00  0.00     0.089 A 
ATOM      8  C   UNL     1      -1.789   0.874  -0.172  1.00  0.00    -0.002 A 
ATOM      9  C   UNL     1      -2.640   1.972  -0.337  1.00  0.00     0.013 A 
ATOM     10  C   UNL     1      -4.028   1.812  -0.311  1.00  0.00     0.051 A 
ATOM     11  C   UNL     1       1.920  -0.016   0.009  1.00  0.00     0.054 A 
ATOM     12  C   UNL     1       2.626   1.170   0.288  1.00  0.00     0.065 A 
ATOM     13  C   UNL     1       4.027   1.220   0.243  1.00  0.00     0.161 A 
ATOM     14  C   UNL     1       4.758   0.066  -0.091  1.00  0.00     0.161 A 
ATOM     15  C   UNL     1       4.077  -1.123  -0.353  1.00  0.00     0.055 A 
ATOM     16  C   UNL     1       2.676  -1.169  -0.284  1.00  0.00    -0.024 A 
ATOM     17  C   UNL     1       1.948  -2.458  -0.549  1.00  0.00     0.109 C 
ATOM     18  C   UNL     1       0.732  -2.519   0.358  1.00  0.00     0.362 C 
ENDROOT
BRANCH   1  19
ATOM     19  O   UNL     1      -5.949   0.340  -0.041  1.00  0.00    -0.493 OA
ATOM     20  C   UNL     1      -6.816   1.469  -0.082  1.00  0.00     0.278 C 
ENDBRANCH   1  19
BRANCH   2  21
ATOM     21  O   UNL     1      -4.168  -1.872   0.166  1.00  0.00    -0.492 OA
ATOM     22  C   UNL     1      -5.384  -2.258  -0.473  1.00  0.00     0.278 C 
ENDBRANCH   2  21
BRANCH  13  23
ATOM     23  O   UNL     1       4.771   2.343   0.503  1.00  0.00    -0.493 OA
ATOM     24  C   UNL     1       4.098   3.542   0.854  1.00  0.00     0.278 C 
ENDBRANCH  13  23
BRANCH  14  25
ATOM     25  O   UNL     1       6.121   0.204  -0.122  1.00  0.00    -0.493 OA
ATOM     26  C   UNL     1       6.902  -0.912  -0.523  1.00  0.00     0.278 C 
ENDBRANCH  14  25
TORSDOF 4
