REMARK SMILES COc1ccc2cc3[n+](cc2c1OC)CCc1cc2c(cc1-3)OCO2
REMARK SMILES IDX 3 1 12 2 11 3 10 4 9 5 8 6 7 7 6 8 5 9 4 10 22 11 21 12
REMARK SMILES IDX 20 13 19 14 18 15 17 16 16 17 15 18 25 19 24 20 23 21 2 22
REMARK SMILES IDX 1 23 13 24 14 25
REMARK H PARENT
ROOT
ATOM      1  C   UNL     1      -3.942  -0.634   1.008  1.00  0.00     0.161 A 
ATOM      2  C   UNL     1      -3.205   0.062   0.030  1.00  0.00     0.174 A 
ATOM      3  C   UNL     1      -1.786   0.088   0.083  1.00  0.00     0.092 A 
ATOM      4  C   UNL     1      -1.012   0.802  -0.837  1.00  0.00     0.321 A 
ATOM      5  N   UNL     1       0.342   0.817  -0.789  1.00  0.00    -0.197 N 
ATOM      6  C   UNL     1       1.017   0.142   0.184  1.00  0.00     0.213 A 
ATOM      7  C   UNL     1       0.285  -0.596   1.126  1.00  0.00     0.089 A 
ATOM      8  C   UNL     1      -1.112  -0.624   1.085  1.00  0.00    -0.002 A 
ATOM      9  C   UNL     1      -1.852  -1.349   2.026  1.00  0.00     0.013 A 
ATOM     10  C   UNL     1      -3.249  -1.348   1.990  1.00  0.00     0.051 A 
ATOM     11  C   UNL     1       2.492   0.213   0.146  1.00  0.00     0.054 A 
ATOM     12  C   UNL     1       3.289  -0.077   1.271  1.00  0.00     0.066 A 
ATOM     13  C   UNL     1       4.664  -0.028   1.149  1.00  0.00     0.166 A 
ATOM     14  C   UNL     1       5.279   0.294  -0.033  1.00  0.00     0.166 A 
ATOM     15  C   UNL     1       4.554   0.598  -1.161  1.00  0.00     0.055 A 
ATOM     16  C   UNL     1       3.152   0.573  -1.064  1.00  0.00    -0.024 A 
ATOM     17  C   UNL     1       2.310   0.908  -2.264  1.00  0.00     0.109 C 
ATOM     18  C   UNL     1       1.067   1.639  -1.793  1.00  0.00     0.362 C 
ATOM     19  O   UNL     1       6.633   0.279   0.063  1.00  0.00    -0.454 OA
ATOM     20  C   UNL     1       6.807  -0.096   1.447  1.00  0.00     0.468 C 
ATOM     21  O   UNL     1       5.554  -0.287   2.143  1.00  0.00    -0.454 OA
ENDROOT
BRANCH   1  22
ATOM     22  O   UNL     1      -5.305  -0.551   0.958  1.00  0.00    -0.493 OA
ATOM     23  C   UNL     1      -6.062  -1.180   1.985  1.00  0.00     0.278 C 
ENDBRANCH   1  22
BRANCH   2  24
ATOM     24  O   UNL     1      -3.743   0.805  -0.999  1.00  0.00    -0.492 OA
ATOM     25  C   UNL     1      -4.966   0.336  -1.564  1.00  0.00     0.278 C 
ENDBRANCH   2  24
TORSDOF 2
