REMARK SMILES C=CC(C)(C)c1cc(/C=C/C(=O)c2ccc(O)cc2)c(OC)cc1O
REMARK SMILES IDX 9 1 10 2 8 3 6 4 24 5 7 6 23 7 20 8 3 9 4 10 5 11 2 12 1 13
REMARK SMILES IDX 25 14 21 16 22 17 11 18 12 19 13 20 14 21 19 22 15 23 18 24
REMARK SMILES IDX 16 25 17 26
REMARK H PARENT 25 15 17 27
ROOT
ATOM      1  C   UNL     1       0.805  -1.014  -0.316  1.00  0.00     0.016 C 
ATOM      2  C   UNL     1       1.987  -0.447  -0.033  1.00  0.00     0.053 C 
ENDROOT
BRANCH   1   3
ATOM      3  C   UNL     1      -0.479  -0.483   0.174  1.00  0.00     0.017 A 
ATOM      4  C   UNL     1      -2.777   0.181  -0.443  1.00  0.00     0.004 A 
ATOM      5  C   UNL     1      -2.991   0.478   0.915  1.00  0.00     0.123 A 
ATOM      6  C   UNL     1      -1.499  -0.305  -0.782  1.00  0.00     0.020 A 
ATOM      7  C   UNL     1      -1.995   0.295   1.884  1.00  0.00     0.093 A 
ATOM      8  C   UNL     1      -0.738  -0.196   1.526  1.00  0.00     0.129 A 
BRANCH   4   9
ATOM      9  C   UNL     1      -3.884   0.376  -1.509  1.00  0.00     0.011 C 
ATOM     10  C   UNL     1      -4.220   1.884  -1.617  1.00  0.00     0.021 C 
ATOM     11  C   UNL     1      -3.453  -0.060  -2.935  1.00  0.00     0.021 C 
BRANCH   9  12
ATOM     12  C   UNL     1      -5.085  -0.517  -1.180  1.00  0.00    -0.024 C 
ATOM     13  C   UNL     1      -6.368  -0.150  -1.042  1.00  0.00     0.005 C 
ENDBRANCH   9  12
ENDBRANCH   4   9
BRANCH   5  14
ATOM     14  O   UNL     1      -4.207   0.960   1.316  1.00  0.00    -0.507 OA
ATOM     15  H   UNL     1      -4.237   1.014   2.284  1.00  0.00     0.293 HD
ENDBRANCH   5  14
BRANCH   8  16
ATOM     16  O   UNL     1       0.285  -0.417   2.414  1.00  0.00    -0.496 OA
ATOM     17  C   UNL     1      -0.027  -0.371   3.801  1.00  0.00     0.278 C 
ENDBRANCH   8  16
ENDBRANCH   1   3
BRANCH   2  18
ATOM     18  C   UNL     1       3.237  -1.036  -0.581  1.00  0.00     0.185 C 
ATOM     19  O   UNL     1       3.222  -1.854  -1.496  1.00  0.00    -0.289 OA
BRANCH  18  20
ATOM     20  C   UNL     1       4.532  -0.574  -0.013  1.00  0.00     0.022 A 
ATOM     21  C   UNL     1       5.672  -0.642  -0.829  1.00  0.00     0.016 A 
ATOM     22  C   UNL     1       4.653  -0.111   1.304  1.00  0.00     0.016 A 
ATOM     23  C   UNL     1       6.915  -0.228  -0.344  1.00  0.00     0.047 A 
ATOM     24  C   UNL     1       5.898   0.303   1.786  1.00  0.00     0.047 A 
ATOM     25  C   UNL     1       7.015   0.244   0.960  1.00  0.00     0.115 A 
BRANCH  25  26
ATOM     26  O   UNL     1       8.206   0.658   1.476  1.00  0.00    -0.508 OA
ATOM     27  H   UNL     1       8.895   0.547   0.800  1.00  0.00     0.293 HD
ENDBRANCH  25  26
ENDBRANCH  18  20
ENDBRANCH   2  18
TORSDOF 8
