REMARK SMILES COc1c(CC=C(C)C)c(O)cc2c1C[C@H](c1ccc(O)cc1O)CO2
REMARK SMILES IDX 4 1 3 2 14 3 13 4 12 5 10 6 26 7 25 8 16 9 15 10 5 11 6 12
REMARK SMILES IDX 7 13 8 14 9 15 2 16 1 17 11 18 17 20 23 21 18 22 22 23 19 24
REMARK SMILES IDX 20 25 24 26 21 28
REMARK H PARENT 11 19 24 27 21 29
ROOT
ATOM      1  C   UNL     1       1.962  -0.359  -0.944  1.00  0.00     0.040 A 
ATOM      2  C   UNL     1       0.989   0.649  -1.080  1.00  0.00     0.132 A 
ATOM      3  C   UNL     1      -0.356   0.345  -1.370  1.00  0.00     0.037 A 
ATOM      4  C   UNL     1      -0.725  -0.996  -1.503  1.00  0.00     0.129 A 
ATOM      5  C   UNL     1       0.212  -2.012  -1.325  1.00  0.00     0.093 A 
ATOM      6  C   UNL     1       1.542  -1.691  -1.061  1.00  0.00     0.126 A 
ATOM      7  O   UNL     1      -2.001  -1.409  -1.774  1.00  0.00    -0.492 OA
ATOM      8  C   UNL     1      -2.831  -0.414  -2.381  1.00  0.00     0.238 C 
ATOM      9  C   UNL     1      -2.818   0.923  -1.634  1.00  0.00     0.065 C 
ATOM     10  C   UNL     1      -1.373   1.439  -1.566  1.00  0.00     0.055 C 
ENDROOT
BRANCH   1  11
ATOM     11  C   UNL     1       3.419  -0.036  -0.686  1.00  0.00     0.070 C 
BRANCH  11  12
ATOM     12  C   UNL     1       3.804  -0.181   0.766  1.00  0.00    -0.023 C 
ATOM     13  C   UNL     1       4.720  -1.006   1.311  1.00  0.00    -0.080 C 
ATOM     14  C   UNL     1       5.561  -1.996   0.553  1.00  0.00     0.039 C 
ATOM     15  C   UNL     1       4.966  -1.001   2.798  1.00  0.00     0.039 C 
ENDBRANCH  11  12
ENDBRANCH   1  11
BRANCH   2  16
ATOM     16  O   UNL     1       1.353   1.972  -1.012  1.00  0.00    -0.496 OA
ATOM     17  C   UNL     1       1.307   2.455   0.332  1.00  0.00     0.278 C 
ENDBRANCH   2  16
BRANCH   6  18
ATOM     18  O   UNL     1       2.463  -2.695  -0.932  1.00  0.00    -0.507 OA
ATOM     19  H   UNL     1       2.007  -3.550  -0.992  1.00  0.00     0.293 HD
ENDBRANCH   6  18
BRANCH   9  20
ATOM     20  C   UNL     1      -3.567   0.824  -0.305  1.00  0.00     0.001 A 
ATOM     21  C   UNL     1      -4.968   0.933  -0.259  1.00  0.00     0.122 A 
ATOM     22  C   UNL     1      -2.905   0.549   0.905  1.00  0.00     0.012 A 
ATOM     23  C   UNL     1      -5.682   0.763   0.925  1.00  0.00     0.092 A 
ATOM     24  C   UNL     1      -3.613   0.393   2.103  1.00  0.00     0.047 A 
ATOM     25  C   UNL     1      -4.998   0.499   2.101  1.00  0.00     0.119 A 
BRANCH  21  26
ATOM     26  O   UNL     1      -5.706   1.200  -1.379  1.00  0.00    -0.508 OA
ATOM     27  H   UNL     1      -5.335   2.001  -1.782  1.00  0.00     0.293 HD
ENDBRANCH  21  26
BRANCH  25  28
ATOM     28  O   UNL     1      -5.724   0.345   3.244  1.00  0.00    -0.508 OA
ATOM     29  H   UNL     1      -5.118   0.116   3.968  1.00  0.00     0.293 HD
ENDBRANCH  25  28
ENDBRANCH   9  20
TORSDOF 7
