REMARK SMILES CC1(C)C=Cc2cc(-c3coc4cc(O)cc(O)c4c3=O)cc(O)c2O1
REMARK SMILES IDX 9 1 10 2 11 3 12 4 13 5 14 6 16 7 17 8 19 9 20 10 21 11 8 12
REMARK SMILES IDX 2 13 4 14 26 15 5 16 25 17 6 18 23 19 7 20 22 21 1 22 3 23
REMARK SMILES IDX 24 24 18 26 15 28
REMARK H PARENT 24 25 18 27 15 29
ROOT
ATOM      1  C   UNL     1      -1.610   0.456   0.623  1.00  0.00     0.065 C 
ATOM      2  C   UNL     1      -2.262   0.562   1.792  1.00  0.00     0.208 C 
ATOM      3  O   UNL     1      -3.622   0.624   1.976  1.00  0.00    -0.463 OA
ATOM      4  C   UNL     1      -4.421   0.571   0.862  1.00  0.00     0.145 A 
ATOM      5  C   UNL     1      -5.800   0.640   1.071  1.00  0.00     0.094 A 
ATOM      6  C   UNL     1      -6.657   0.588  -0.025  1.00  0.00     0.123 A 
ATOM      7  C   UNL     1      -6.159   0.469  -1.319  1.00  0.00     0.093 A 
ATOM      8  C   UNL     1      -4.783   0.401  -1.521  1.00  0.00     0.134 A 
ATOM      9  C   UNL     1      -3.908   0.452  -0.429  1.00  0.00     0.107 A 
ATOM     10  C   UNL     1      -2.448   0.381  -0.606  1.00  0.00     0.204 C 
ATOM     11  O   UNL     1      -1.978   0.265  -1.734  1.00  0.00    -0.288 OA
ENDROOT
BRANCH   1  12
ATOM     12  C   UNL     1      -0.137   0.390   0.582  1.00  0.00    -0.007 A 
ATOM     13  C   UNL     1       4.761  -0.721  -0.260  1.00  0.00     0.122 C 
ATOM     14  C   UNL     1       3.912  -1.720  -1.012  1.00  0.00     0.021 C 
ATOM     15  O   UNL     1       4.042   0.254   0.527  1.00  0.00    -0.479 OA
ATOM     16  C   UNL     1       2.576  -1.710  -0.998  1.00  0.00     0.012 C 
ATOM     17  C   UNL     1       2.675   0.242   0.497  1.00  0.00     0.169 A 
ATOM     18  C   UNL     1       1.914  -0.680  -0.217  1.00  0.00     0.021 A 
ATOM     19  C   UNL     1       2.031   1.231   1.242  1.00  0.00     0.158 A 
ATOM     20  C   UNL     1       0.513  -0.603  -0.171  1.00  0.00     0.021 A 
ATOM     21  C   UNL     1       0.644   1.315   1.289  1.00  0.00     0.059 A 
ATOM     22  C   UNL     1       5.613   0.072  -1.258  1.00  0.00     0.061 C 
ATOM     23  C   UNL     1       5.674  -1.470   0.718  1.00  0.00     0.061 C 
BRANCH  19  24
ATOM     24  O   UNL     1       2.760   2.147   1.950  1.00  0.00    -0.504 OA
ATOM     25  H   UNL     1       3.694   1.921   1.772  1.00  0.00     0.293 HD
ENDBRANCH  19  24
ENDBRANCH   1  12
BRANCH   8  26
ATOM     26  O   UNL     1      -4.354   0.285  -2.816  1.00  0.00    -0.507 OA
ATOM     27  H   UNL     1      -3.371   0.256  -2.811  1.00  0.00     0.293 HD
ENDBRANCH   8  26
BRANCH   6  28
ATOM     28  O   UNL     1      -8.010   0.651   0.131  1.00  0.00    -0.508 OA
ATOM     29  H   UNL     1      -8.222   0.739   1.075  1.00  0.00     0.293 HD
ENDBRANCH   6  28
TORSDOF 4
