REMARK SMILES CC1(C)C=Cc2c(O)ccc(C3=Cc4ccc(O)cc4OC3)c2O1
REMARK SMILES IDX 1 1 2 2 4 3 5 4 6 5 7 6 9 7 10 8 11 9 23 10 24 11 3 12 12 13
REMARK SMILES IDX 13 14 22 15 14 16 21 17 20 18 15 19 19 20 16 21 17 22 18 23
REMARK SMILES IDX 8 25
REMARK H PARENT 18 24 8 26
ROOT
ATOM      1  C   UNL     1      -1.643  -0.451   3.507  1.00  0.00     0.061 C 
ATOM      2  C   UNL     1      -2.251  -0.115   2.139  1.00  0.00     0.122 C 
ATOM      3  C   UNL     1      -3.518  -0.908   1.949  1.00  0.00     0.021 C 
ATOM      4  C   UNL     1      -3.809  -1.533   0.804  1.00  0.00     0.015 C 
ATOM      5  C   UNL     1      -2.869  -1.411  -0.310  1.00  0.00     0.059 A 
ATOM      6  C   UNL     1      -3.174  -1.847  -1.607  1.00  0.00     0.126 A 
ATOM      7  C   UNL     1      -2.225  -1.792  -2.624  1.00  0.00     0.048 A 
ATOM      8  C   UNL     1      -0.955  -1.281  -2.363  1.00  0.00     0.016 A 
ATOM      9  C   UNL     1      -0.619  -0.811  -1.084  1.00  0.00     0.024 A 
ATOM     10  C   UNL     1      -1.591  -0.876  -0.062  1.00  0.00     0.139 A 
ATOM     11  O   UNL     1      -1.222  -0.415   1.178  1.00  0.00    -0.482 OA
ATOM     12  C   UNL     1      -2.546   1.388   2.064  1.00  0.00     0.061 C 
ENDROOT
BRANCH   9  13
ATOM     13  C   UNL     1       0.747  -0.289  -0.854  1.00  0.00     0.001 C 
ATOM     14  C   UNL     1       1.256   0.680  -1.631  1.00  0.00     0.020 C 
ATOM     15  C   UNL     1       1.550  -0.858   0.290  1.00  0.00     0.266 C 
ATOM     16  C   UNL     1       2.614   1.130  -1.349  1.00  0.00     0.017 A 
ATOM     17  O   UNL     1       2.980  -0.760   0.135  1.00  0.00    -0.488 OA
ATOM     18  C   UNL     1       3.419   0.384  -0.480  1.00  0.00     0.130 A 
ATOM     19  C   UNL     1       3.142   2.267  -1.970  1.00  0.00     0.016 A 
ATOM     20  C   UNL     1       4.744   0.751  -0.245  1.00  0.00     0.093 A 
ATOM     21  C   UNL     1       4.462   2.649  -1.721  1.00  0.00     0.047 A 
ATOM     22  C   UNL     1       5.252   1.888  -0.865  1.00  0.00     0.119 A 
BRANCH  22  23
ATOM     23  O   UNL     1       6.538   2.293  -0.661  1.00  0.00    -0.508 OA
ATOM     24  H   UNL     1       6.967   1.665  -0.057  1.00  0.00     0.293 HD
ENDBRANCH  22  23
ENDBRANCH   9  13
BRANCH   6  25
ATOM     25  O   UNL     1      -4.399  -2.335  -1.971  1.00  0.00    -0.507 OA
ATOM     26  H   UNL     1      -5.060  -2.012  -1.338  1.00  0.00     0.293 HD
ENDBRANCH   6  25
TORSDOF 3
