REMARK SMILES C=C(CCC(=O)O)[C@H]1C[C@H](O)[C@@]2(C)C3=C(C(=O)C[C@]12C)[C@@]1(C)CC[C@H](O)[C@@](C)(CO)[C@@H]1C[C@@H]3O
REMARK SMILES IDX 2 1 1 2 8 3 21 4 23 5 31 6 15 7 24 8 27 9 32 10 14 11 16 12
REMARK SMILES IDX 25 13 33 14 12 15 17 16 18 17 19 18 10 19 9 20 22 21 28 22
REMARK SMILES IDX 13 23 20 24 29 25 30 26 26 28 34 30 11 32 3 34 4 35 5 36
REMARK SMILES IDX 6 37 7 38
REMARK H PARENT 30 27 26 29 34 31 11 33 7 39
ROOT
ATOM      1  C   UNL     1       4.462  -0.597  -1.483  1.00  0.00    -0.073 C 
ATOM      2  C   UNL     1       4.887  -1.692  -2.143  1.00  0.00     0.008 C 
ENDROOT
BRANCH   1   3
ATOM      3  C   UNL     1       3.392  -0.749  -0.405  1.00  0.00     0.024 C 
ATOM      4  C   UNL     1      -2.502  -0.054  -0.589  1.00  0.00    -0.000 C 
ATOM      5  C   UNL     1      -3.339  -1.180  -1.261  1.00  0.00     0.014 C 
ATOM      6  C   UNL     1      -3.035   0.107   0.898  1.00  0.00     0.013 C 
ATOM      7  C   UNL     1      -0.977  -0.364  -0.512  1.00  0.00     0.004 C 
ATOM      8  C   UNL     1      -4.849  -1.020  -1.122  1.00  0.00     0.033 C 
ATOM      9  C   UNL     1      -4.596   0.205   1.114  1.00  0.00     0.020 C 
ATOM     10  C   UNL     1      -2.239   1.207   1.611  1.00  0.00     0.041 C 
ATOM     11  C   UNL     1      -0.207   0.041   0.538  1.00  0.00    -0.026 C 
ATOM     12  C   UNL     1      -0.305  -1.114  -1.659  1.00  0.00     0.160 C 
ATOM     13  C   UNL     1      -5.273  -0.956   0.335  1.00  0.00     0.123 C 
ATOM     14  C   UNL     1      -0.748   0.874   1.675  1.00  0.00     0.142 C 
ATOM     15  C   UNL     1       1.248  -0.421   0.669  1.00  0.00     0.024 C 
ATOM     16  O   UNL     1      -0.959  -1.576  -2.593  1.00  0.00    -0.295 OA
ATOM     17  C   UNL     1       1.205  -1.322  -1.674  1.00  0.00     0.089 C 
ATOM     18  C   UNL     1       1.923  -0.354  -0.740  1.00  0.00    -0.007 C 
ATOM     19  C   UNL     1       2.289   0.388   1.498  1.00  0.00     0.125 C 
ATOM     20  C   UNL     1       3.665  -0.070   0.962  1.00  0.00     0.041 C 
ATOM     21  C   UNL     1      -2.603   1.219  -1.461  1.00  0.00     0.017 C 
ATOM     22  C   UNL     1      -5.188   1.575   0.714  1.00  0.00     0.017 C 
ATOM     23  C   UNL     1       1.142  -1.853   1.294  1.00  0.00     0.019 C 
ATOM     24  C   UNL     1       1.865   1.066  -1.383  1.00  0.00     0.013 C 
BRANCH   9  25
ATOM     25  C   UNL     1      -4.927  -0.004   2.631  1.00  0.00     0.165 C 
BRANCH  25  26
ATOM     26  O   UNL     1      -6.322   0.025   2.918  1.00  0.00    -0.396 OA
ATOM     27  H   UNL     1      -6.789  -0.310   2.123  1.00  0.00     0.210 HD
ENDBRANCH  25  26
ENDBRANCH   9  25
BRANCH  13  28
ATOM     28  O   UNL     1      -6.696  -0.851   0.416  1.00  0.00    -0.392 OA
ATOM     29  H   UNL     1      -7.076  -1.537  -0.163  1.00  0.00     0.210 HD
ENDBRANCH  13  28
BRANCH  14  30
ATOM     30  O   UNL     1      -0.050   2.115   1.695  1.00  0.00    -0.389 OA
ATOM     31  H   UNL     1      -0.245   2.530   2.553  1.00  0.00     0.211 HD
ENDBRANCH  14  30
BRANCH  19  32
ATOM     32  O   UNL     1       2.197   0.154   2.897  1.00  0.00    -0.392 OA
ATOM     33  H   UNL     1       2.889   0.692   3.321  1.00  0.00     0.210 HD
ENDBRANCH  19  32
ENDBRANCH   1   3
BRANCH   1  34
ATOM     34  C   UNL     1       5.033   0.776  -1.804  1.00  0.00     0.042 C 
BRANCH  34  35
ATOM     35  C   UNL     1       6.550   0.858  -1.990  1.00  0.00     0.127 C 
BRANCH  35  36
ATOM     36  C   UNL     1       7.312   0.440  -0.766  1.00  0.00     0.303 C 
ATOM     37  O   UNL     1       8.154  -0.442  -0.708  1.00  0.00    -0.252 OA
BRANCH  36  38
ATOM     38  O   UNL     1       7.033   1.188   0.318  1.00  0.00    -0.481 OA
ATOM     39  H   UNL     1       7.624   0.818   1.009  1.00  0.00     0.296 HD
ENDBRANCH  36  38
ENDBRANCH  35  36
ENDBRANCH  34  35
ENDBRANCH   1  34
TORSDOF 10
