REMARK SMILES CC(CCC(=O)O)[C@@H]1CC(=O)[C@@]2(C)C3=C([C@@H](O)C[C@]12C)[C@@]1(C)CC[C@H](O)C(C)(C)C1C[C@@H]3O
REMARK SMILES IDX 3 1 2 2 1 3 8 4 9 5 19 6 10 7 12 8 18 9 11 10 14 11 16 12
REMARK SMILES IDX 15 13 32 14 21 15 31 16 30 17 23 18 27 19 24 20 25 21 20 22
REMARK SMILES IDX 13 23 22 24 28 25 29 26 17 27 33 29 26 31 4 33 5 34 6 35
REMARK SMILES IDX 7 36
REMARK H PARENT 17 28 33 30 26 32 7 37
ROOT
ATOM      1  C   UNL     1       4.839  -1.976  -0.281  1.00  0.00     0.015 C 
ENDROOT
BRANCH   1   2
ATOM      2  C   UNL     1       4.358  -0.564  -0.723  1.00  0.00    -0.010 C 
ATOM      3  C   UNL     1       5.555   0.205  -1.303  1.00  0.00     0.008 C 
BRANCH   2   4
ATOM      4  C   UNL     1       3.166  -0.699  -1.729  1.00  0.00     0.006 C 
ATOM      5  C   UNL     1       2.979   0.428  -2.788  1.00  0.00     0.081 C 
ATOM      6  C   UNL     1       1.722  -0.833  -1.117  1.00  0.00    -0.010 C 
ATOM      7  C   UNL     1       1.662   1.090  -2.423  1.00  0.00     0.143 C 
ATOM      8  C   UNL     1       1.174   0.633  -1.050  1.00  0.00     0.056 C 
ATOM      9  C   UNL     1       1.550  -1.438   0.284  1.00  0.00     0.044 C 
ATOM     10  O   UNL     1       1.106   1.917  -3.136  1.00  0.00    -0.299 OA
ATOM     11  C   UNL     1      -0.305   0.648  -0.681  1.00  0.00    -0.026 C 
ATOM     12  C   UNL     1       0.069  -1.405   0.744  1.00  0.00     0.141 C 
ATOM     13  C   UNL     1      -0.828  -0.279   0.170  1.00  0.00    -0.033 C 
ATOM     14  C   UNL     1      -1.092   1.818  -1.195  1.00  0.00     0.142 C 
ATOM     15  C   UNL     1      -2.332  -0.211   0.654  1.00  0.00    -0.005 C 
ATOM     16  C   UNL     1      -2.306   2.145  -0.343  1.00  0.00     0.041 C 
ATOM     17  C   UNL     1      -3.196   0.910  -0.087  1.00  0.00     0.010 C 
ATOM     18  C   UNL     1      -2.294   0.083   2.177  1.00  0.00     0.014 C 
ATOM     19  C   UNL     1      -4.568   1.332   0.621  1.00  0.00    -0.006 C 
ATOM     20  C   UNL     1      -3.646   0.375   2.807  1.00  0.00     0.033 C 
ATOM     21  C   UNL     1      -4.343   1.553   2.139  1.00  0.00     0.120 C 
ATOM     22  C   UNL     1       0.925  -1.726  -2.139  1.00  0.00     0.013 C 
ATOM     23  C   UNL     1       1.881   1.588  -0.049  1.00  0.00     0.025 C 
ATOM     24  C   UNL     1      -2.993  -1.584   0.392  1.00  0.00     0.016 C 
ATOM     25  C   UNL     1      -5.135   2.647   0.009  1.00  0.00     0.014 C 
ATOM     26  C   UNL     1      -5.697   0.294   0.381  1.00  0.00     0.014 C 
BRANCH  12  27
ATOM     27  O   UNL     1      -0.471  -2.676   0.390  1.00  0.00    -0.389 OA
ATOM     28  H   UNL     1      -0.053  -3.343   0.958  1.00  0.00     0.211 HD
ENDBRANCH  12  27
BRANCH  14  29
ATOM     29  O   UNL     1      -1.512   1.528  -2.522  1.00  0.00    -0.389 OA
ATOM     30  H   UNL     1      -0.736   1.711  -3.092  1.00  0.00     0.211 HD
ENDBRANCH  14  29
BRANCH  21  31
ATOM     31  O   UNL     1      -5.573   1.765   2.831  1.00  0.00    -0.393 OA
ATOM     32  H   UNL     1      -5.951   2.603   2.517  1.00  0.00     0.210 HD
ENDBRANCH  21  31
ENDBRANCH   2   4
ENDBRANCH   1   2
BRANCH   1  33
ATOM     33  C   UNL     1       5.661  -1.995   1.008  1.00  0.00     0.123 C 
BRANCH  33  34
ATOM     34  C   UNL     1       4.816  -1.707   2.216  1.00  0.00     0.303 C 
ATOM     35  O   UNL     1       4.634  -0.615   2.726  1.00  0.00    -0.252 OA
BRANCH  34  36
ATOM     36  O   UNL     1       4.210  -2.804   2.705  1.00  0.00    -0.481 OA
ATOM     37  H   UNL     1       3.730  -2.480   3.496  1.00  0.00     0.296 HD
ENDBRANCH  34  36
ENDBRANCH  33  34
ENDBRANCH   1  33
TORSDOF 8
