REMARK SMILES C[C@H](CCC(=O)O)[C@H]1CC(=O)[C@@]2(C)C3=C(C(=O)C[C@]12C)[C@@]1(C)CC[C@H](O)C(C)(C)[C@@H]1C[C@@H]3O
REMARK SMILES IDX 3 1 2 2 1 3 8 4 9 5 19 6 10 7 12 8 18 9 11 10 14 11 16 12
REMARK SMILES IDX 15 13 32 14 17 15 21 16 31 17 30 18 23 19 27 20 24 21 25 22
REMARK SMILES IDX 20 23 13 24 22 25 28 26 29 27 33 28 26 30 4 32 5 33 6 34
REMARK SMILES IDX 7 35
REMARK H PARENT 33 29 26 31 7 36
ROOT
ATOM      1  C   UNL     1       4.884  -1.221  -0.065  1.00  0.00     0.015 C 
ENDROOT
BRANCH   1   2
ATOM      2  C   UNL     1       4.595   0.150   0.592  1.00  0.00    -0.010 C 
ATOM      3  C   UNL     1       4.998   1.306  -0.329  1.00  0.00     0.008 C 
BRANCH   2   4
ATOM      4  C   UNL     1       3.159   0.204   1.200  1.00  0.00     0.007 C 
ATOM      5  C   UNL     1       2.905   1.479   2.044  1.00  0.00     0.081 C 
ATOM      6  C   UNL     1       1.861   0.083   0.338  1.00  0.00    -0.006 C 
ATOM      7  C   UNL     1       1.392   1.559   2.112  1.00  0.00     0.143 C 
ATOM      8  C   UNL     1       0.731   0.380   1.386  1.00  0.00     0.056 C 
ATOM      9  C   UNL     1       1.562  -1.293  -0.255  1.00  0.00     0.089 C 
ATOM     10  O   UNL     1       0.793   2.434   2.728  1.00  0.00    -0.299 OA
ATOM     11  C   UNL     1      -0.606   0.477   0.671  1.00  0.00    -0.021 C 
ATOM     12  C   UNL     1       0.128  -1.403  -0.771  1.00  0.00     0.160 C 
ATOM     13  C   UNL     1      -0.957  -0.463  -0.254  1.00  0.00     0.004 C 
ATOM     14  C   UNL     1      -1.525   1.611   1.082  1.00  0.00     0.142 C 
ATOM     15  O   UNL     1      -0.110  -2.250  -1.630  1.00  0.00    -0.295 OA
ATOM     16  C   UNL     1      -2.373  -0.492  -0.897  1.00  0.00    -0.000 C 
ATOM     17  C   UNL     1      -2.902   1.633   0.406  1.00  0.00     0.041 C 
ATOM     18  C   UNL     1      -3.357   0.199   0.139  1.00  0.00     0.011 C 
ATOM     19  C   UNL     1      -2.980  -1.891  -1.251  1.00  0.00     0.014 C 
ATOM     20  C   UNL     1      -4.887  -0.021  -0.123  1.00  0.00    -0.006 C 
ATOM     21  C   UNL     1      -3.941  -2.446  -0.205  1.00  0.00     0.033 C 
ATOM     22  C   UNL     1      -5.176  -1.558  -0.012  1.00  0.00     0.120 C 
ATOM     23  C   UNL     1       1.881   1.119  -0.827  1.00  0.00     0.013 C 
ATOM     24  C   UNL     1       0.536  -0.676   2.513  1.00  0.00     0.025 C 
ATOM     25  C   UNL     1      -2.178   0.284  -2.227  1.00  0.00     0.017 C 
ATOM     26  C   UNL     1      -5.731   0.672   0.979  1.00  0.00     0.014 C 
ATOM     27  C   UNL     1      -5.370   0.572  -1.460  1.00  0.00     0.014 C 
BRANCH  14  28
ATOM     28  O   UNL     1      -0.897   2.846   0.761  1.00  0.00    -0.389 OA
ATOM     29  H   UNL     1      -0.427   3.132   1.573  1.00  0.00     0.211 HD
ENDBRANCH  14  28
BRANCH  22  30
ATOM     30  O   UNL     1      -6.182  -1.973  -0.934  1.00  0.00    -0.393 OA
ATOM     31  H   UNL     1      -7.006  -1.516  -0.696  1.00  0.00     0.210 HD
ENDBRANCH  22  30
ENDBRANCH   2   4
ENDBRANCH   1   2
BRANCH   1  32
ATOM     32  C   UNL     1       6.371  -1.539  -0.250  1.00  0.00     0.123 C 
BRANCH  32  33
ATOM     33  C   UNL     1       6.988  -0.934  -1.481  1.00  0.00     0.303 C 
ATOM     34  O   UNL     1       7.998  -0.250  -1.513  1.00  0.00    -0.252 OA
BRANCH  33  35
ATOM     35  O   UNL     1       6.340  -1.255  -2.614  1.00  0.00    -0.481 OA
ATOM     36  H   UNL     1       6.866  -0.827  -3.323  1.00  0.00     0.296 HD
ENDBRANCH  33  35
ENDBRANCH  32  33
ENDBRANCH   1  32
TORSDOF 7
