REMARK SMILES CC(C)=CCc1c(O)ccc(-c2coc3cc(O)cc(O)c3c2=O)c1O
REMARK SMILES IDX 6 1 7 2 9 3 10 4 11 5 25 6 5 7 4 8 2 9 1 10 3 11 8 12 26 14
REMARK SMILES IDX 12 16 13 17 23 18 14 19 22 20 24 21 15 22 20 23 16 24 19 25
REMARK SMILES IDX 17 26 21 27 18 29
REMARK H PARENT 8 13 26 15 21 28 18 30
ROOT
ATOM      1  C   UNL     1       2.272  -1.424  -0.447  1.00  0.00     0.040 A 
ATOM      2  C   UNL     1       2.493  -2.246  -1.560  1.00  0.00     0.122 A 
ATOM      3  C   UNL     1       1.470  -2.532  -2.461  1.00  0.00     0.047 A 
ATOM      4  C   UNL     1       0.204  -1.975  -2.272  1.00  0.00     0.016 A 
ATOM      5  C   UNL     1      -0.061  -1.128  -1.182  1.00  0.00     0.031 A 
ATOM      6  C   UNL     1       0.983  -0.888  -0.265  1.00  0.00     0.130 A 
ENDROOT
BRANCH   1   7
ATOM      7  C   UNL     1       3.396  -1.109   0.517  1.00  0.00     0.070 C 
BRANCH   7   8
ATOM      8  C   UNL     1       4.267   0.025   0.038  1.00  0.00    -0.023 C 
ATOM      9  C   UNL     1       4.394   1.263   0.556  1.00  0.00    -0.080 C 
ATOM     10  C   UNL     1       3.642   1.784   1.749  1.00  0.00     0.039 C 
ATOM     11  C   UNL     1       5.333   2.261  -0.068  1.00  0.00     0.039 C 
ENDBRANCH   7   8
ENDBRANCH   1   7
BRANCH   2  12
ATOM     12  O   UNL     1       3.736  -2.782  -1.757  1.00  0.00    -0.508 OA
ATOM     13  H   UNL     1       3.723  -3.330  -2.558  1.00  0.00     0.293 HD
ENDBRANCH   2  12
BRANCH   6  14
ATOM     14  O   UNL     1       0.772  -0.115   0.850  1.00  0.00    -0.507 OA
ATOM     15  H   UNL     1      -0.070  -0.426   1.253  1.00  0.00     0.293 HD
ENDBRANCH   6  14
BRANCH   5  16
ATOM     16  C   UNL     1      -1.405  -0.512  -1.062  1.00  0.00     0.069 C 
ATOM     17  C   UNL     1      -1.953   0.128  -2.106  1.00  0.00     0.208 C 
ATOM     18  C   UNL     1      -2.189  -0.525   0.206  1.00  0.00     0.204 C 
ATOM     19  O   UNL     1      -3.178   0.739  -2.146  1.00  0.00    -0.463 OA
ATOM     20  C   UNL     1      -3.559   0.042   0.158  1.00  0.00     0.107 A 
ATOM     21  O   UNL     1      -1.680  -0.963   1.234  1.00  0.00    -0.288 OA
ATOM     22  C   UNL     1      -3.971   0.655  -1.029  1.00  0.00     0.145 A 
ATOM     23  C   UNL     1      -4.445   0.003   1.243  1.00  0.00     0.134 A 
ATOM     24  C   UNL     1      -5.241   1.229  -1.138  1.00  0.00     0.094 A 
ATOM     25  C   UNL     1      -5.716   0.573   1.139  1.00  0.00     0.093 A 
ATOM     26  C   UNL     1      -6.102   1.182  -0.050  1.00  0.00     0.123 A 
BRANCH  23  27
ATOM     27  O   UNL     1      -4.092  -0.598   2.417  1.00  0.00    -0.507 OA
ATOM     28  H   UNL     1      -4.802  -0.500   3.072  1.00  0.00     0.293 HD
ENDBRANCH  23  27
BRANCH  26  29
ATOM     29  O   UNL     1      -7.351   1.726  -0.105  1.00  0.00    -0.508 OA
ATOM     30  H   UNL     1      -7.486   2.128  -0.979  1.00  0.00     0.293 HD
ENDBRANCH  26  29
ENDBRANCH   5  16
TORSDOF 7
