REMARK SMILES COc1c(CC=C(C)C)c(O)cc2oc(=O)c3c4ccc(O)cc4oc3c12
REMARK SMILES IDX 4 1 3 2 27 3 13 4 12 5 10 6 14 7 15 8 16 9 17 10 26 11 25 12
REMARK SMILES IDX 24 13 18 14 19 15 20 16 21 17 23 18 5 19 6 20 7 21 8 22 9 23
REMARK SMILES IDX 2 24 1 25 11 26 22 28
REMARK H PARENT 11 27 22 29
ROOT
ATOM      1  C   UNL     1      -1.627  -0.721   0.237  1.00  0.00     0.041 A 
ATOM      2  C   UNL     1      -0.303  -0.242   0.393  1.00  0.00     0.140 A 
ATOM      3  C   UNL     1       0.761  -0.834  -0.305  1.00  0.00     0.103 A 
ATOM      4  C   UNL     1       0.480  -1.869  -1.210  1.00  0.00     0.149 A 
ATOM      5  C   UNL     1      -0.812  -2.332  -1.415  1.00  0.00     0.094 A 
ATOM      6  C   UNL     1      -1.853  -1.757  -0.691  1.00  0.00     0.126 A 
ATOM      7  O   UNL     1       1.519  -2.504  -1.961  1.00  0.00    -0.422 OA
ATOM      8  C   UNL     1       2.890  -2.164  -1.844  1.00  0.00     0.348 C 
ATOM      9  O   UNL     1       3.748  -2.732  -2.510  1.00  0.00    -0.246 OA
ATOM     10  C   UNL     1       3.180  -1.116  -0.897  1.00  0.00     0.115 A 
ATOM     11  C   UNL     1       2.164  -0.516  -0.196  1.00  0.00     0.157 A 
ATOM     12  O   UNL     1       2.631   0.434   0.645  1.00  0.00    -0.455 OA
ATOM     13  C   UNL     1       3.988   0.451   0.481  1.00  0.00     0.139 A 
ATOM     14  C   UNL     1       4.379  -0.493  -0.470  1.00  0.00     0.036 A 
ATOM     15  C   UNL     1       5.748  -0.615  -0.770  1.00  0.00     0.017 A 
ATOM     16  C   UNL     1       6.658   0.216  -0.102  1.00  0.00     0.047 A 
ATOM     17  C   UNL     1       6.217   1.142   0.842  1.00  0.00     0.119 A 
ATOM     18  C   UNL     1       4.867   1.289   1.163  1.00  0.00     0.093 A 
ENDROOT
BRANCH   1  19
ATOM     19  C   UNL     1      -2.756  -0.161   1.083  1.00  0.00     0.070 C 
BRANCH  19  20
ATOM     20  C   UNL     1      -3.722   0.677   0.284  1.00  0.00    -0.023 C 
ATOM     21  C   UNL     1      -5.065   0.574   0.225  1.00  0.00    -0.080 C 
ATOM     22  C   UNL     1      -5.904  -0.414   0.991  1.00  0.00     0.039 C 
ATOM     23  C   UNL     1      -5.864   1.505  -0.652  1.00  0.00     0.039 C 
ENDBRANCH  19  20
ENDBRANCH   1  19
BRANCH   2  24
ATOM     24  O   UNL     1      -0.063   0.753   1.308  1.00  0.00    -0.495 OA
ATOM     25  C   UNL     1      -0.036   2.032   0.670  1.00  0.00     0.278 C 
ENDBRANCH   2  24
BRANCH   6  26
ATOM     26  O   UNL     1      -3.092  -2.281  -0.937  1.00  0.00    -0.507 OA
ATOM     27  H   UNL     1      -3.772  -1.684  -0.584  1.00  0.00     0.293 HD
ENDBRANCH   6  26
BRANCH  17  28
ATOM     28  O   UNL     1       7.167   1.913   1.450  1.00  0.00    -0.508 OA
ATOM     29  H   UNL     1       6.733   2.496   2.095  1.00  0.00     0.293 HD
ENDBRANCH  17  28
TORSDOF 5
