REMARK SMILES C[C@H](CCC(=O)O)[C@H]1CC(=O)[C@@]2(C)C3=C(C(=O)[C@@H](O)[C@]12C)[C@@]1(C)CCC(=O)C(C)(C)[C@@H]1C[C@@H]3O
REMARK SMILES IDX 3 1 2 2 1 3 8 4 9 5 20 6 10 7 12 8 18 9 11 10 14 11 16 12
REMARK SMILES IDX 15 13 33 14 17 15 22 16 32 17 31 18 24 19 28 20 25 21 26 22
REMARK SMILES IDX 27 23 21 24 13 25 23 26 29 27 30 28 19 29 34 31 4 33 5 34
REMARK SMILES IDX 6 35 7 36
REMARK H PARENT 19 30 34 32 7 37
ROOT
ATOM      1  C   UNL     1       4.849   0.757  -0.282  1.00  0.00     0.015 C 
ENDROOT
BRANCH   1   2
ATOM      2  C   UNL     1       4.388  -0.631   0.220  1.00  0.00    -0.009 C 
ATOM      3  C   UNL     1       4.632  -0.767   1.727  1.00  0.00     0.008 C 
BRANCH   2   4
ATOM      4  C   UNL     1       2.974  -1.015  -0.309  1.00  0.00     0.009 C 
ATOM      5  C   UNL     1       2.655  -2.511  -0.053  1.00  0.00     0.081 C 
ATOM      6  C   UNL     1       1.642  -0.294   0.091  1.00  0.00     0.021 C 
ATOM      7  C   UNL     1       1.170  -2.603  -0.329  1.00  0.00     0.143 C 
ATOM      8  C   UNL     1       0.559  -1.217  -0.589  1.00  0.00     0.059 C 
ATOM      9  C   UNL     1       1.411   1.114  -0.481  1.00  0.00     0.193 C 
ATOM     10  O   UNL     1       0.582  -3.670  -0.448  1.00  0.00    -0.299 OA
ATOM     11  C   UNL     1      -0.814  -0.791  -0.098  1.00  0.00    -0.021 C 
ATOM     12  C   UNL     1      -0.077   1.544  -0.416  1.00  0.00     0.188 C 
ATOM     13  C   UNL     1      -1.171   0.518  -0.150  1.00  0.00     0.007 C 
ATOM     14  C   UNL     1      -1.742  -1.867   0.399  1.00  0.00     0.142 C 
ATOM     15  O   UNL     1      -0.347   2.741  -0.543  1.00  0.00    -0.292 OA
ATOM     16  C   UNL     1      -2.616   1.014   0.088  1.00  0.00     0.000 C 
ATOM     17  C   UNL     1      -3.127  -1.382   0.837  1.00  0.00     0.042 C 
ATOM     18  C   UNL     1      -3.617  -0.202  -0.009  1.00  0.00     0.015 C 
ATOM     19  C   UNL     1      -3.039   2.053  -1.001  1.00  0.00     0.020 C 
ATOM     20  C   UNL     1      -5.124   0.158   0.247  1.00  0.00     0.027 C 
ATOM     21  C   UNL     1      -4.516   2.064  -1.383  1.00  0.00     0.077 C 
ATOM     22  C   UNL     1      -5.390   1.580  -0.256  1.00  0.00     0.138 C 
ATOM     23  O   UNL     1      -6.306   2.277   0.178  1.00  0.00    -0.299 OA
ATOM     24  C   UNL     1       1.493  -0.251   1.642  1.00  0.00     0.016 C 
ATOM     25  C   UNL     1       0.493  -1.177  -2.149  1.00  0.00     0.025 C 
ATOM     26  C   UNL     1      -2.637   1.698   1.475  1.00  0.00     0.017 C 
ATOM     27  C   UNL     1      -5.567   0.039   1.718  1.00  0.00     0.020 C 
ATOM     28  C   UNL     1      -6.028  -0.779  -0.583  1.00  0.00     0.020 C 
BRANCH   9  29
ATOM     29  O   UNL     1       2.178   2.094   0.213  1.00  0.00    -0.384 OA
ATOM     30  H   UNL     1       1.803   2.961  -0.046  1.00  0.00     0.211 HD
ENDBRANCH   9  29
BRANCH  14  31
ATOM     31  O   UNL     1      -1.130  -2.472   1.534  1.00  0.00    -0.389 OA
ATOM     32  H   UNL     1      -1.122  -1.828   2.261  1.00  0.00     0.211 HD
ENDBRANCH  14  31
ENDBRANCH   2   4
ENDBRANCH   1   2
BRANCH   1  33
ATOM     33  C   UNL     1       6.370   0.892  -0.421  1.00  0.00     0.123 C 
BRANCH  33  34
ATOM     34  C   UNL     1       6.908   0.137  -1.608  1.00  0.00     0.303 C 
ATOM     35  O   UNL     1       6.271  -0.446  -2.469  1.00  0.00    -0.252 OA
BRANCH  34  36
ATOM     36  O   UNL     1       8.255   0.170  -1.654  1.00  0.00    -0.481 OA
ATOM     37  H   UNL     1       8.481  -0.338  -2.461  1.00  0.00     0.296 HD
ENDBRANCH  34  36
ENDBRANCH  33  34
ENDBRANCH   1  33
TORSDOF 7
