REMARK SMILES CC(C)=CCc1cc(-c2oc3cc(O)cc(O)c3c(=O)c2O)ccc1O
REMARK SMILES IDX 6 1 25 2 24 3 23 4 8 5 7 6 5 7 4 8 2 9 1 10 3 11 26 12 9 14
REMARK SMILES IDX 21 15 10 16 19 17 11 18 20 19 18 20 12 21 16 22 13 23 15 24
REMARK SMILES IDX 22 25 17 27 14 29
REMARK H PARENT 26 13 22 26 17 28 14 30
ROOT
ATOM      1  C   UNL     1      -2.017   0.459  -0.890  1.00  0.00    -0.002 A 
ATOM      2  C   UNL     1      -2.386  -0.163  -2.086  1.00  0.00     0.119 A 
ATOM      3  C   UNL     1      -1.456  -0.875  -2.841  1.00  0.00     0.047 A 
ATOM      4  C   UNL     1      -0.134  -0.979  -2.399  1.00  0.00     0.016 A 
ATOM      5  C   UNL     1       0.269  -0.383  -1.197  1.00  0.00     0.022 A 
ATOM      6  C   UNL     1      -0.683   0.338  -0.457  1.00  0.00     0.020 A 
ENDROOT
BRANCH   1   7
ATOM      7  C   UNL     1      -3.012   1.219  -0.044  1.00  0.00     0.066 C 
BRANCH   7   8
ATOM      8  C   UNL     1      -3.590   0.375   1.062  1.00  0.00    -0.023 C 
ATOM      9  C   UNL     1      -4.862  -0.047   1.214  1.00  0.00    -0.080 C 
ATOM     10  C   UNL     1      -5.254  -0.882   2.404  1.00  0.00     0.039 C 
ATOM     11  C   UNL     1      -5.989   0.233   0.259  1.00  0.00     0.039 C 
ENDBRANCH   7   8
ENDBRANCH   1   7
BRANCH   2  12
ATOM     12  O   UNL     1      -3.678  -0.061  -2.519  1.00  0.00    -0.508 OA
ATOM     13  H   UNL     1      -3.785  -0.609  -3.313  1.00  0.00     0.293 HD
ENDBRANCH   2  12
BRANCH   5  14
ATOM     14  C   UNL     1       1.666  -0.460  -0.719  1.00  0.00     0.180 C 
ATOM     15  C   UNL     1       2.373  -1.605  -0.684  1.00  0.00     0.208 C 
ATOM     16  O   UNL     1       2.158   0.767  -0.289  1.00  0.00    -0.452 OA
ATOM     17  C   UNL     1       3.761  -1.563  -0.170  1.00  0.00     0.238 C 
ATOM     18  C   UNL     1       3.443   0.839   0.185  1.00  0.00     0.146 A 
ATOM     19  O   UNL     1       4.440  -2.587  -0.119  1.00  0.00    -0.285 OA
ATOM     20  C   UNL     1       4.282  -0.268   0.270  1.00  0.00     0.111 A 
ATOM     21  C   UNL     1       3.900   2.091   0.595  1.00  0.00     0.094 A 
ATOM     22  C   UNL     1       5.582  -0.127   0.767  1.00  0.00     0.134 A 
ATOM     23  C   UNL     1       5.196   2.222   1.087  1.00  0.00     0.123 A 
ATOM     24  C   UNL     1       6.044   1.121   1.177  1.00  0.00     0.093 A 
BRANCH  15  25
ATOM     25  O   UNL     1       1.887  -2.837  -1.082  1.00  0.00    -0.502 OA
ATOM     26  H   UNL     1       2.614  -3.471  -0.908  1.00  0.00     0.293 HD
ENDBRANCH  15  25
BRANCH  22  27
ATOM     27  O   UNL     1       6.457  -1.174   0.877  1.00  0.00    -0.507 OA
ATOM     28  H   UNL     1       6.008  -1.990   0.560  1.00  0.00     0.293 HD
ENDBRANCH  22  27
BRANCH  23  29
ATOM     29  O   UNL     1       5.602   3.463   1.477  1.00  0.00    -0.508 OA
ATOM     30  H   UNL     1       6.519   3.410   1.795  1.00  0.00     0.293 HD
ENDBRANCH  23  29
ENDBRANCH   5  14
TORSDOF 7
