REMARK SMILES O=C(/C=C/c1ccc(O)cc1)c1ccc(O)cc1O
REMARK SMILES IDX 4 1 3 2 5 3 6 4 7 5 8 6 11 7 10 8 9 9 2 11 1 12 12 13 18 14
REMARK SMILES IDX 13 15 17 16 14 17 15 18 19 19 16 21
REMARK H PARENT 9 10 19 20 16 22
ROOT
ATOM      1  C   UNL     1      -0.717   0.141   0.226  1.00  0.00     0.012 C 
ATOM      2  C   UNL     1      -0.189  -0.097   1.436  1.00  0.00     0.053 C 
ENDROOT
BRANCH   1   3
ATOM      3  C   UNL     1      -2.121  -0.125  -0.117  1.00  0.00    -0.025 A 
ATOM      4  C   UNL     1      -3.172   0.128   0.777  1.00  0.00     0.012 A 
ATOM      5  C   UNL     1      -4.498  -0.110   0.403  1.00  0.00     0.047 A 
ATOM      6  C   UNL     1      -4.774  -0.591  -0.872  1.00  0.00     0.115 A 
ATOM      7  C   UNL     1      -2.424  -0.594  -1.402  1.00  0.00     0.012 A 
ATOM      8  C   UNL     1      -3.749  -0.832  -1.777  1.00  0.00     0.047 A 
BRANCH   6   9
ATOM      9  O   UNL     1      -6.052  -0.836  -1.278  1.00  0.00    -0.508 OA
ATOM     10  H   UNL     1      -6.655  -0.631  -0.545  1.00  0.00     0.293 HD
ENDBRANCH   6   9
ENDBRANCH   1   3
BRANCH   2  11
ATOM     11  C   UNL     1       1.220   0.185   1.817  1.00  0.00     0.189 C 
ATOM     12  O   UNL     1       1.500   0.370   3.000  1.00  0.00    -0.289 OA
BRANCH  11  13
ATOM     13  C   UNL     1       2.279   0.307   0.792  1.00  0.00     0.064 A 
ATOM     14  C   UNL     1       2.516  -0.676  -0.176  1.00  0.00     0.130 A 
ATOM     15  C   UNL     1       3.105   1.439   0.850  1.00  0.00     0.020 A 
ATOM     16  C   UNL     1       3.542  -0.509  -1.106  1.00  0.00     0.093 A 
ATOM     17  C   UNL     1       4.134   1.607  -0.078  1.00  0.00     0.047 A 
ATOM     18  C   UNL     1       4.338   0.632  -1.051  1.00  0.00     0.119 A 
BRANCH  14  19
ATOM     19  O   UNL     1       1.762  -1.816  -0.203  1.00  0.00    -0.507 OA
ATOM     20  H   UNL     1       2.126  -2.426  -0.868  1.00  0.00     0.293 HD
ENDBRANCH  14  19
BRANCH  18  21
ATOM     21  O   UNL     1       5.330   0.754  -1.979  1.00  0.00    -0.508 OA
ATOM     22  H   UNL     1       5.821   1.576  -1.808  1.00  0.00     0.293 HD
ENDBRANCH  18  21
ENDBRANCH  11  13
ENDBRANCH   2  11
TORSDOF 6
