REMARK SMILES C[C@H](CCC(=O)O)[C@H]1CC(=O)[C@@]2(C)C3=C(C(=O)C[C@]12C)[C@@]1(C)CCC(=O)C(C)(C)[C@@H]1CC3=O
REMARK SMILES IDX 3 1 2 2 1 3 8 4 9 5 19 6 10 7 12 8 18 9 11 10 14 11 16 12
REMARK SMILES IDX 15 13 32 14 17 15 21 16 33 17 31 18 30 19 23 20 27 21 24 22
REMARK SMILES IDX 25 23 26 24 20 25 13 26 22 27 28 28 29 29 4 30 5 31 6 32
REMARK SMILES IDX 7 33
REMARK H PARENT 7 34
ROOT
ATOM      1  C   UNL     1       4.637   1.643  -0.069  1.00  0.00     0.015 C 
ENDROOT
BRANCH   1   2
ATOM      2  C   UNL     1       4.229   0.570  -1.103  1.00  0.00    -0.010 C 
ATOM      3  C   UNL     1       5.454  -0.239  -1.566  1.00  0.00     0.008 C 
BRANCH   2   4
ATOM      4  C   UNL     1       3.033  -0.394  -0.863  1.00  0.00     0.007 C 
ATOM      5  C   UNL     1       3.202  -1.513   0.189  1.00  0.00     0.081 C 
ATOM      6  C   UNL     1       1.593   0.136  -0.587  1.00  0.00    -0.005 C 
ATOM      7  C   UNL     1       1.756  -1.864   0.547  1.00  0.00     0.144 C 
ATOM      8  C   UNL     1       0.771  -1.205  -0.437  1.00  0.00     0.061 C 
ATOM      9  C   UNL     1       0.969   0.952  -1.712  1.00  0.00     0.089 C 
ATOM     10  O   UNL     1       1.467  -2.543   1.520  1.00  0.00    -0.299 OA
ATOM     11  C   UNL     1      -0.659  -0.864  -0.093  1.00  0.00     0.016 C 
ATOM     12  C   UNL     1      -0.514   1.191  -1.451  1.00  0.00     0.160 C 
ATOM     13  C   UNL     1      -1.302   0.240  -0.554  1.00  0.00     0.009 C 
ATOM     14  C   UNL     1      -1.441  -1.846   0.713  1.00  0.00     0.160 C 
ATOM     15  O   UNL     1      -1.064   2.151  -1.987  1.00  0.00    -0.294 OA
ATOM     16  C   UNL     1      -2.772   0.615  -0.212  1.00  0.00     0.001 C 
ATOM     17  O   UNL     1      -1.152  -3.038   0.719  1.00  0.00    -0.294 OA
ATOM     18  C   UNL     1      -2.649  -1.331   1.444  1.00  0.00     0.086 C 
ATOM     19  C   UNL     1      -3.524  -0.619   0.412  1.00  0.00     0.020 C 
ATOM     20  C   UNL     1      -3.586   1.050  -1.472  1.00  0.00     0.020 C 
ATOM     21  C   UNL     1      -4.981  -0.334   0.908  1.00  0.00     0.027 C 
ATOM     22  C   UNL     1      -5.092   0.788  -1.418  1.00  0.00     0.077 C 
ATOM     23  C   UNL     1      -5.611   0.726  -0.003  1.00  0.00     0.138 C 
ATOM     24  O   UNL     1      -6.535   1.449   0.365  1.00  0.00    -0.299 OA
ATOM     25  C   UNL     1       1.547   0.998   0.721  1.00  0.00     0.013 C 
ATOM     26  C   UNL     1       0.717  -2.127  -1.686  1.00  0.00     0.025 C 
ATOM     27  C   UNL     1      -2.689   1.812   0.768  1.00  0.00     0.017 C 
ATOM     28  C   UNL     1      -5.841  -1.608   0.763  1.00  0.00     0.020 C 
ATOM     29  C   UNL     1      -5.070   0.115   2.379  1.00  0.00     0.020 C 
ENDBRANCH   2   4
ENDBRANCH   1   2
BRANCH   1  30
ATOM     30  C   UNL     1       5.090   1.232   1.329  1.00  0.00     0.123 C 
BRANCH  30  31
ATOM     31  C   UNL     1       6.403   0.505   1.368  1.00  0.00     0.303 C 
ATOM     32  O   UNL     1       6.572  -0.648   1.726  1.00  0.00    -0.252 OA
BRANCH  31  33
ATOM     33  O   UNL     1       7.439   1.264   0.970  1.00  0.00    -0.481 OA
ATOM     34  H   UNL     1       8.219   0.677   1.065  1.00  0.00     0.296 HD
ENDBRANCH  31  33
ENDBRANCH  30  31
ENDBRANCH   1  30
TORSDOF 5
