REMARK SMILES O=C1C[C@@H](c2ccc(O)cc2)Oc2cc(O[C@@H]3O[C@H](CO)[C@@H](O)[C@H](O)[C@H]3O)ccc21
REMARK SMILES IDX 16 1 15 2 3 3 4 4 2 5 12 6 30 7 1 8 13 9 29 10 14 11 28 12
REMARK SMILES IDX 5 13 6 14 11 15 7 16 10 17 8 18 9 19 17 21 26 22 18 23 24 24
REMARK SMILES IDX 19 25 22 26 27 27 25 29 20 31 21 32 23 34
REMARK H PARENT 9 20 27 28 25 30 21 33 23 35
ROOT
ATOM      1  O   UNL     1      -2.067   1.095   2.156  1.00  0.00    -0.462 OA
ENDROOT
BRANCH   1   2
ATOM      2  C   UNL     1      -0.706   0.979   2.165  1.00  0.00     0.126 A 
ATOM      3  C   UNL     1       4.253  -0.033   1.538  1.00  0.00     0.131 C 
ATOM      4  C   UNL     1       3.517   0.132   0.216  1.00  0.00     0.211 C 
ATOM      5  C   UNL     1       3.542   0.790   2.574  1.00  0.00     0.170 C 
ATOM      6  O   UNL     1       2.155  -0.317   0.323  1.00  0.00    -0.484 OA
ATOM      7  C   UNL     1       2.076   0.899   2.431  1.00  0.00     0.060 A 
ATOM      8  O   UNL     1       4.125   1.306   3.522  1.00  0.00    -0.294 OA
ATOM      9  C   UNL     1       1.463   0.319   1.321  1.00  0.00     0.134 A 
ATOM     10  C   UNL     1       1.309   1.543   3.402  1.00  0.00     0.019 A 
ATOM     11  C   UNL     1       0.072   0.345   1.194  1.00  0.00     0.093 A 
ATOM     12  C   UNL     1      -0.079   1.584   3.260  1.00  0.00     0.047 A 
BRANCH   4  13
ATOM     13  C   UNL     1       4.203  -0.661  -0.881  1.00  0.00    -0.007 A 
ATOM     14  C   UNL     1       5.073  -0.016  -1.775  1.00  0.00     0.011 A 
ATOM     15  C   UNL     1       4.014  -2.048  -1.007  1.00  0.00     0.011 A 
ATOM     16  C   UNL     1       5.727  -0.738  -2.774  1.00  0.00     0.046 A 
ATOM     17  C   UNL     1       4.669  -2.771  -2.007  1.00  0.00     0.046 A 
ATOM     18  C   UNL     1       5.521  -2.108  -2.883  1.00  0.00     0.115 A 
BRANCH  18  19
ATOM     19  O   UNL     1       6.181  -2.772  -3.874  1.00  0.00    -0.508 OA
ATOM     20  H   UNL     1       5.948  -3.714  -3.823  1.00  0.00     0.293 HD
ENDBRANCH  18  19
ENDBRANCH   4  13
ENDBRANCH   1   2
BRANCH   1  21
ATOM     21  C   UNL     1      -2.808   0.314   1.206  1.00  0.00     0.339 C 
ATOM     22  C   UNL     1      -4.283   0.311   1.662  1.00  0.00     0.214 C 
ATOM     23  O   UNL     1      -2.690   0.897  -0.099  1.00  0.00    -0.332 OA
ATOM     24  C   UNL     1      -5.152  -0.382   0.615  1.00  0.00     0.180 C 
ATOM     25  C   UNL     1      -3.428   0.196  -1.102  1.00  0.00     0.179 C 
ATOM     26  C   UNL     1      -4.931   0.202  -0.779  1.00  0.00     0.177 C 
BRANCH  22  27
ATOM     27  O   UNL     1      -4.450  -0.381   2.911  1.00  0.00    -0.384 OA
ATOM     28  H   UNL     1      -5.418  -0.431   3.045  1.00  0.00     0.211 HD
ENDBRANCH  22  27
BRANCH  24  29
ATOM     29  O   UNL     1      -6.535  -0.255   0.988  1.00  0.00    -0.387 OA
ATOM     30  H   UNL     1      -7.034  -0.569   0.206  1.00  0.00     0.211 HD
ENDBRANCH  24  29
BRANCH  25  31
ATOM     31  C   UNL     1      -3.143   0.873  -2.450  1.00  0.00     0.191 C 
BRANCH  31  32
ATOM     32  O   UNL     1      -3.886   0.256  -3.498  1.00  0.00    -0.394 OA
ATOM     33  H   UNL     1      -3.578   0.661  -4.331  1.00  0.00     0.210 HD
ENDBRANCH  31  32
ENDBRANCH  25  31
BRANCH  26  34
ATOM     34  O   UNL     1      -5.698  -0.584  -1.700  1.00  0.00    -0.387 OA
ATOM     35  H   UNL     1      -5.334  -0.397  -2.595  1.00  0.00     0.211 HD
ENDBRANCH  26  34
ENDBRANCH   1  21
TORSDOF 9
