REMARK SMILES O=C1C[C@@H](c2ccc(O)cc2)Oc2cc(O)ccc21
REMARK SMILES IDX 3 1 4 2 12 3 13 4 19 5 2 6 1 7 18 8 17 9 15 10 14 11 5 12
REMARK SMILES IDX 6 13 11 14 7 15 10 16 8 17 9 18 16 20
REMARK H PARENT 9 19 16 21
ROOT
ATOM      1  C   UNL     1      -0.046  -2.569  -0.282  1.00  0.00     0.131 C 
ATOM      2  C   UNL     1       0.259  -1.607   0.861  1.00  0.00     0.211 C 
ATOM      3  O   UNL     1      -0.951  -0.967   1.320  1.00  0.00    -0.484 OA
ATOM      4  C   UNL     1      -1.672  -0.355   0.328  1.00  0.00     0.134 A 
ATOM      5  C   UNL     1      -1.585  -0.704  -1.020  1.00  0.00     0.060 A 
ATOM      6  C   UNL     1      -0.713  -1.829  -1.406  1.00  0.00     0.170 C 
ATOM      7  O   UNL     1      -0.592  -2.168  -2.578  1.00  0.00    -0.294 OA
ATOM      8  C   UNL     1      -2.342  -0.027  -1.980  1.00  0.00     0.019 A 
ATOM      9  C   UNL     1      -3.201   0.996  -1.580  1.00  0.00     0.047 A 
ATOM     10  C   UNL     1      -3.300   1.326  -0.231  1.00  0.00     0.119 A 
ATOM     11  C   UNL     1      -2.546   0.656   0.730  1.00  0.00     0.093 A 
ENDROOT
BRANCH   2  12
ATOM     12  C   UNL     1       1.372  -0.580   0.676  1.00  0.00    -0.007 A 
ATOM     13  C   UNL     1       2.182  -0.517  -0.469  1.00  0.00     0.011 A 
ATOM     14  C   UNL     1       1.623   0.337   1.716  1.00  0.00     0.011 A 
ATOM     15  C   UNL     1       3.196   0.440  -0.574  1.00  0.00     0.046 A 
ATOM     16  C   UNL     1       2.636   1.294   1.611  1.00  0.00     0.046 A 
ATOM     17  C   UNL     1       3.415   1.337   0.463  1.00  0.00     0.115 A 
BRANCH  17  18
ATOM     18  O   UNL     1       4.415   2.251   0.313  1.00  0.00    -0.508 OA
ATOM     19  H   UNL     1       4.439   2.816   1.103  1.00  0.00     0.293 HD
ENDBRANCH  17  18
ENDBRANCH   2  12
BRANCH  10  20
ATOM     20  O   UNL     1      -4.161   2.326   0.113  1.00  0.00    -0.508 OA
ATOM     21  H   UNL     1      -4.124   2.456   1.075  1.00  0.00     0.293 HD
ENDBRANCH  10  20
TORSDOF 3
