REMARK SMILES COc1c2c(cc3oc(=O)c4c5ccc(O)cc5oc4c13)OC(C)(C)CC2
REMARK SMILES IDX 24 1 23 2 26 3 27 4 4 5 5 6 22 7 6 8 7 9 21 10 3 11 20 12
REMARK SMILES IDX 11 13 12 14 18 15 19 16 17 17 15 18 14 19 13 20 9 21 10 22
REMARK SMILES IDX 8 23 25 24 2 25 1 26 16 27
REMARK H PARENT 16 28
ROOT
ATOM      1  C   UNL     1       5.928  -0.137   0.040  1.00  0.00     0.056 C 
ATOM      2  C   UNL     1       4.490  -0.629   0.259  1.00  0.00     0.104 C 
ATOM      3  C   UNL     1       3.992  -1.291  -1.032  1.00  0.00     0.053 C 
ATOM      4  C   UNL     1       2.524  -1.674  -0.920  1.00  0.00     0.047 C 
ATOM      5  C   UNL     1       1.723  -0.545  -0.333  1.00  0.00     0.037 A 
ATOM      6  C   UNL     1       2.369   0.485   0.369  1.00  0.00     0.130 A 
ATOM      7  O   UNL     1       3.720   0.541   0.585  1.00  0.00    -0.487 OA
ATOM      8  C   UNL     1       1.646   1.560   0.882  1.00  0.00     0.095 A 
ATOM      9  C   UNL     1       0.269   1.597   0.696  1.00  0.00     0.149 A 
ATOM     10  C   UNL     1      -0.416   0.575   0.020  1.00  0.00     0.103 A 
ATOM     11  C   UNL     1       0.318  -0.514  -0.464  1.00  0.00     0.140 A 
ATOM     12  C   UNL     1      -1.835   0.799  -0.099  1.00  0.00     0.157 A 
ATOM     13  C   UNL     1      -2.521   1.882   0.390  1.00  0.00     0.115 A 
ATOM     14  C   UNL     1      -3.880   1.681   0.043  1.00  0.00     0.036 A 
ATOM     15  C   UNL     1      -3.911   0.469  -0.647  1.00  0.00     0.139 A 
ATOM     16  O   UNL     1      -2.658  -0.068  -0.732  1.00  0.00    -0.455 OA
ATOM     17  C   UNL     1      -5.069  -0.101  -1.169  1.00  0.00     0.093 A 
ATOM     18  C   UNL     1      -6.248   0.615  -0.969  1.00  0.00     0.119 A 
ATOM     19  C   UNL     1      -6.272   1.831  -0.286  1.00  0.00     0.047 A 
ATOM     20  C   UNL     1      -5.088   2.380   0.228  1.00  0.00     0.017 A 
ATOM     21  C   UNL     1      -1.822   2.925   1.098  1.00  0.00     0.348 C 
ATOM     22  O   UNL     1      -2.375   3.914   1.567  1.00  0.00    -0.246 OA
ATOM     23  O   UNL     1      -0.423   2.733   1.224  1.00  0.00    -0.422 OA
ATOM     24  C   UNL     1       4.480  -1.584   1.463  1.00  0.00     0.056 C 
ENDROOT
BRANCH  11  25
ATOM     25  O   UNL     1      -0.296  -1.532  -1.151  1.00  0.00    -0.495 OA
ATOM     26  C   UNL     1      -0.770  -2.532  -0.247  1.00  0.00     0.278 C 
ENDBRANCH  11  25
BRANCH  18  27
ATOM     27  O   UNL     1      -7.397   0.073  -1.473  1.00  0.00    -0.508 OA
ATOM     28  H   UNL     1      -8.138   0.671  -1.279  1.00  0.00     0.293 HD
ENDBRANCH  18  27
TORSDOF 2
