REMARK SMILES COc1cc(O)ccc1/C=C/C(=O)c1ccc(O)cc1
REMARK SMILES IDX 10 1 11 2 9 3 3 4 4 5 8 6 5 7 7 8 2 9 1 10 6 11 12 13 13 14
REMARK SMILES IDX 14 15 15 16 20 17 16 18 19 19 17 20 18 21
REMARK H PARENT 6 12 18 22
ROOT
ATOM      1  C   UNL     1      -0.718  -0.815  -0.452  1.00  0.00     0.016 C 
ATOM      2  C   UNL     1       0.496  -0.292  -0.220  1.00  0.00     0.053 C 
ENDROOT
BRANCH   1   3
ATOM      3  C   UNL     1      -1.961  -0.023  -0.449  1.00  0.00     0.017 A 
ATOM      4  C   UNL     1      -3.115  -0.498   0.212  1.00  0.00     0.129 A 
ATOM      5  C   UNL     1      -4.290   0.262   0.176  1.00  0.00     0.093 A 
ATOM      6  C   UNL     1      -2.021   1.192  -1.154  1.00  0.00     0.016 A 
ATOM      7  C   UNL     1      -4.320   1.469  -0.517  1.00  0.00     0.119 A 
ATOM      8  C   UNL     1      -3.198   1.941  -1.185  1.00  0.00     0.047 A 
BRANCH   4   9
ATOM      9  O   UNL     1      -2.990  -1.698   0.866  1.00  0.00    -0.496 OA
ATOM     10  C   UNL     1      -4.142  -2.213   1.522  1.00  0.00     0.278 C 
ENDBRANCH   4   9
BRANCH   7  11
ATOM     11  O   UNL     1      -5.492   2.168  -0.520  1.00  0.00    -0.508 OA
ATOM     12  H   UNL     1      -5.374   2.975  -1.048  1.00  0.00     0.293 HD
ENDBRANCH   7  11
ENDBRANCH   1   3
BRANCH   2  13
ATOM     13  C   UNL     1       1.692  -1.179  -0.212  1.00  0.00     0.185 C 
ATOM     14  O   UNL     1       1.601  -2.400  -0.293  1.00  0.00    -0.289 OA
BRANCH  13  15
ATOM     15  C   UNL     1       3.030  -0.544  -0.068  1.00  0.00     0.022 A 
ATOM     16  C   UNL     1       3.315   0.735  -0.570  1.00  0.00     0.016 A 
ATOM     17  C   UNL     1       4.042  -1.278   0.565  1.00  0.00     0.016 A 
ATOM     18  C   UNL     1       4.593   1.282  -0.415  1.00  0.00     0.047 A 
ATOM     19  C   UNL     1       5.316  -0.729   0.721  1.00  0.00     0.047 A 
ATOM     20  C   UNL     1       5.580   0.545   0.233  1.00  0.00     0.115 A 
BRANCH  20  21
ATOM     21  O   UNL     1       6.838   1.041   0.405  1.00  0.00    -0.508 OA
ATOM     22  H   UNL     1       6.887   1.925   0.005  1.00  0.00     0.293 HD
ENDBRANCH  20  21
ENDBRANCH  13  15
ENDBRANCH   2  13
TORSDOF 6
