REMARK SMILES CC1(C)C=Cc2c(ccc(-c3coc4cc(O)cc(O)c4c3=O)c2O)O1
REMARK SMILES IDX 11 1 12 2 13 3 14 4 15 5 16 6 18 7 19 8 21 9 22 10 23 11
REMARK SMILES IDX 10 12 2 13 4 14 26 15 5 16 7 17 6 18 8 19 24 20 9 21 1 22
REMARK SMILES IDX 3 23 25 24 20 26 17 28
REMARK H PARENT 25 25 20 27 17 29
ROOT
ATOM      1  C   UNL     1       1.513   0.002   0.533  1.00  0.00     0.069 C 
ATOM      2  C   UNL     1       1.950   0.571   1.666  1.00  0.00     0.208 C 
ATOM      3  O   UNL     1       3.258   0.810   2.011  1.00  0.00    -0.463 OA
ATOM      4  C   UNL     1       4.234   0.413   1.131  1.00  0.00     0.145 A 
ATOM      5  C   UNL     1       5.557   0.652   1.501  1.00  0.00     0.094 A 
ATOM      6  C   UNL     1       6.588   0.271   0.647  1.00  0.00     0.123 A 
ATOM      7  C   UNL     1       6.319  -0.344  -0.573  1.00  0.00     0.093 A 
ATOM      8  C   UNL     1       4.995  -0.580  -0.937  1.00  0.00     0.134 A 
ATOM      9  C   UNL     1       3.949  -0.203  -0.087  1.00  0.00     0.107 A 
ATOM     10  C   UNL     1       2.541  -0.436  -0.446  1.00  0.00     0.204 C 
ATOM     11  O   UNL     1       2.261  -0.963  -1.518  1.00  0.00    -0.288 OA
ENDROOT
BRANCH   1  12
ATOM     12  C   UNL     1       0.074  -0.210   0.306  1.00  0.00     0.031 A 
ATOM     13  C   UNL     1      -4.989  -0.074  -0.287  1.00  0.00     0.122 C 
ATOM     14  C   UNL     1      -4.499   1.349  -0.163  1.00  0.00     0.021 C 
ATOM     15  O   UNL     1      -3.982  -1.098  -0.152  1.00  0.00    -0.483 OA
ATOM     16  C   UNL     1      -3.213   1.669   0.008  1.00  0.00     0.015 C 
ATOM     17  C   UNL     1      -2.674  -0.730  -0.010  1.00  0.00     0.131 A 
ATOM     18  C   UNL     1      -2.232   0.592   0.076  1.00  0.00     0.059 A 
ATOM     19  C   UNL     1      -1.761  -1.783   0.052  1.00  0.00     0.048 A 
ATOM     20  C   UNL     1      -0.856   0.845   0.221  1.00  0.00     0.134 A 
ATOM     21  C   UNL     1      -0.398  -1.527   0.210  1.00  0.00     0.017 A 
ATOM     22  C   UNL     1      -6.027  -0.348   0.808  1.00  0.00     0.061 C 
ATOM     23  C   UNL     1      -5.629  -0.271  -1.666  1.00  0.00     0.061 C 
BRANCH  20  24
ATOM     24  O   UNL     1      -0.445   2.157   0.273  1.00  0.00    -0.507 OA
ATOM     25  H   UNL     1       0.478   2.208  -0.023  1.00  0.00     0.293 HD
ENDBRANCH  20  24
ENDBRANCH   1  12
BRANCH   8  26
ATOM     26  O   UNL     1       4.791  -1.186  -2.148  1.00  0.00    -0.507 OA
ATOM     27  H   UNL     1       3.821  -1.288  -2.283  1.00  0.00     0.293 HD
ENDBRANCH   8  26
BRANCH   6  28
ATOM     28  O   UNL     1       7.866   0.523   1.046  1.00  0.00    -0.508 OA
ATOM     29  H   UNL     1       8.479   0.204   0.362  1.00  0.00     0.293 HD
ENDBRANCH   6  28
TORSDOF 4
