REMARK SMILES CC1(C)C=Cc2c(ccc3c2OC[C@@H](c2ccc(O)cc2O)C3)O1
REMARK SMILES IDX 15 1 21 2 20 3 18 4 17 5 16 6 14 7 2 8 4 9 24 10 5 11 7 12
REMARK SMILES IDX 6 13 8 14 11 15 9 16 10 17 12 18 23 19 13 20 1 21 3 22 22 23
REMARK SMILES IDX 19 25
REMARK H PARENT 22 24 19 26
ROOT
ATOM      1  C   UNL     1      -3.315  -0.263  -0.503  1.00  0.00     0.001 A 
ATOM      2  C   UNL     1      -3.051   0.843   0.314  1.00  0.00     0.122 A 
ATOM      3  C   UNL     1      -3.914   1.204   1.353  1.00  0.00     0.092 A 
ATOM      4  C   UNL     1      -5.059   0.455   1.589  1.00  0.00     0.119 A 
ATOM      5  C   UNL     1      -5.355  -0.650   0.805  1.00  0.00     0.047 A 
ATOM      6  C   UNL     1      -4.487  -1.004  -0.232  1.00  0.00     0.012 A 
ENDROOT
BRANCH   1   7
ATOM      7  C   UNL     1      -2.424  -0.759  -1.642  1.00  0.00     0.065 C 
ATOM      8  C   UNL     1       4.354   0.072   0.415  1.00  0.00     0.122 C 
ATOM      9  C   UNL     1       3.462  -0.999   0.995  1.00  0.00     0.021 C 
ATOM     10  O   UNL     1       3.765   0.892  -0.613  1.00  0.00    -0.483 OA
ATOM     11  C   UNL     1       2.202  -1.198   0.597  1.00  0.00     0.015 C 
ATOM     12  C   UNL     1       2.472   0.660  -0.993  1.00  0.00     0.131 A 
ATOM     13  C   UNL     1       1.658  -0.338  -0.449  1.00  0.00     0.059 A 
ATOM     14  C   UNL     1       1.984   1.502  -1.992  1.00  0.00     0.047 A 
ATOM     15  C   UNL     1       0.343  -0.490  -0.930  1.00  0.00     0.133 A 
ATOM     16  C   UNL     1       0.676   1.362  -2.451  1.00  0.00     0.011 A 
ATOM     17  C   UNL     1      -0.160   0.372  -1.916  1.00  0.00    -0.004 A 
ATOM     18  O   UNL     1      -0.430  -1.477  -0.368  1.00  0.00    -0.492 OA
ATOM     19  C   UNL     1      -1.579   0.265  -2.411  1.00  0.00     0.051 C 
ATOM     20  C   UNL     1      -1.516  -1.907  -1.189  1.00  0.00     0.238 C 
ATOM     21  C   UNL     1       4.787   1.027   1.534  1.00  0.00     0.061 C 
ATOM     22  C   UNL     1       5.590  -0.584  -0.211  1.00  0.00     0.061 C 
ENDBRANCH   1   7
BRANCH   2  23
ATOM     23  O   UNL     1      -1.937   1.600   0.105  1.00  0.00    -0.508 OA
ATOM     24  H   UNL     1      -1.781   2.162   0.882  1.00  0.00     0.293 HD
ENDBRANCH   2  23
BRANCH   4  25
ATOM     25  O   UNL     1      -5.873   0.842   2.612  1.00  0.00    -0.508 OA
ATOM     26  H   UNL     1      -6.624   0.227   2.660  1.00  0.00     0.293 HD
ENDBRANCH   4  25
TORSDOF 3
