REMARK SMILES O=C1C[C@@H](c2ccc(O[C@@H]3O[C@H](CO)[C@@H](O)[C@H](O)[C@H]3O)cc2)Oc2cc(O)ccc21
REMARK SMILES IDX 9 1 8 2 5 3 6 4 22 5 7 6 21 7 4 8 3 9 2 10 23 11 30 12 1 13
REMARK SMILES IDX 24 14 29 15 25 16 28 17 26 18 27 19 10 21 19 22 11 23 17 24
REMARK SMILES IDX 12 25 15 26 20 27 18 29 13 31 14 32 16 34
REMARK H PARENT 27 20 20 28 18 30 14 33 16 35
ROOT
ATOM      1  O   UNL     1       2.364   0.372   0.657  1.00  0.00    -0.462 OA
ENDROOT
BRANCH   1   2
ATOM      2  C   UNL     1       1.039   0.080   0.506  1.00  0.00     0.123 A 
ATOM      3  C   UNL     1      -1.723  -0.256   0.020  1.00  0.00    -0.007 A 
ATOM      4  C   UNL     1      -1.049   0.880  -0.445  1.00  0.00     0.011 A 
ATOM      5  C   UNL     1      -0.992  -1.223   0.724  1.00  0.00     0.011 A 
ATOM      6  C   UNL     1       0.317   1.044  -0.200  1.00  0.00     0.047 A 
ATOM      7  C   UNL     1       0.377  -1.056   0.968  1.00  0.00     0.047 A 
BRANCH   3   8
ATOM      8  C   UNL     1      -3.202  -0.466  -0.251  1.00  0.00     0.211 C 
ATOM      9  C   UNL     1      -3.416  -1.008  -1.658  1.00  0.00     0.131 C 
ATOM     10  C   UNL     1      -4.889  -1.221  -1.856  1.00  0.00     0.170 C 
ATOM     11  O   UNL     1      -3.886   0.786  -0.071  1.00  0.00    -0.484 OA
ATOM     12  C   UNL     1      -5.786  -0.263  -1.180  1.00  0.00     0.060 A 
ATOM     13  O   UNL     1      -5.335  -2.105  -2.579  1.00  0.00    -0.294 OA
ATOM     14  C   UNL     1      -5.227   0.704  -0.339  1.00  0.00     0.134 A 
ATOM     15  C   UNL     1      -7.165  -0.295  -1.404  1.00  0.00     0.019 A 
ATOM     16  C   UNL     1      -6.042   1.667   0.255  1.00  0.00     0.093 A 
ATOM     17  C   UNL     1      -7.982   0.656  -0.793  1.00  0.00     0.047 A 
ATOM     18  C   UNL     1      -7.415   1.630   0.025  1.00  0.00     0.119 A 
BRANCH  18  19
ATOM     19  O   UNL     1      -8.254   2.544   0.592  1.00  0.00    -0.508 OA
ATOM     20  H   UNL     1      -7.732   3.164   1.128  1.00  0.00     0.293 HD
ENDBRANCH  18  19
ENDBRANCH   3   8
ENDBRANCH   1   2
BRANCH   1  21
ATOM     21  C   UNL     1       3.210  -0.538   1.371  1.00  0.00     0.339 C 
ATOM     22  C   UNL     1       3.698  -1.657   0.419  1.00  0.00     0.214 C 
ATOM     23  O   UNL     1       4.289   0.215   1.956  1.00  0.00    -0.332 OA
ATOM     24  C   UNL     1       4.616  -1.089  -0.680  1.00  0.00     0.180 C 
ATOM     25  C   UNL     1       5.463   0.377   1.154  1.00  0.00     0.179 C 
ATOM     26  C   UNL     1       5.160   0.308  -0.348  1.00  0.00     0.177 C 
BRANCH  22  27
ATOM     27  O   UNL     1       4.394  -2.664   1.169  1.00  0.00    -0.384 OA
ATOM     28  H   UNL     1       4.629  -3.381   0.552  1.00  0.00     0.211 HD
ENDBRANCH  22  27
BRANCH  24  29
ATOM     29  O   UNL     1       3.941  -1.028  -1.947  1.00  0.00    -0.387 OA
ATOM     30  H   UNL     1       3.140  -0.481  -1.838  1.00  0.00     0.211 HD
ENDBRANCH  24  29
BRANCH  25  31
ATOM     31  C   UNL     1       6.134   1.704   1.540  1.00  0.00     0.191 C 
BRANCH  31  32
ATOM     32  O   UNL     1       7.423   1.853   0.953  1.00  0.00    -0.394 OA
ATOM     33  H   UNL     1       7.342   1.564   0.019  1.00  0.00     0.210 HD
ENDBRANCH  31  32
ENDBRANCH  25  31
BRANCH  26  34
ATOM     34  O   UNL     1       6.321   0.569  -1.149  1.00  0.00    -0.387 OA
ATOM     35  H   UNL     1       6.079   0.319  -2.064  1.00  0.00     0.211 HD
ENDBRANCH  26  34
ENDBRANCH   1  21
TORSDOF 9
