REMARK SMILES COc1c(/C=C/C(=O)c2ccc(O)cc2)ccc(O)c1O
REMARK SMILES IDX 5 1 6 2 4 3 3 4 20 5 16 6 18 7 17 8 2 9 1 10 21 11 19 13
REMARK SMILES IDX 7 15 8 16 9 17 10 18 15 19 11 20 14 21 12 22 13 23
REMARK H PARENT 21 12 19 14 13 24
ROOT
ATOM      1  C   UNL     1      -0.574  -0.020  -0.934  1.00  0.00     0.016 C 
ATOM      2  C   UNL     1       0.650   0.007  -0.384  1.00  0.00     0.053 C 
ENDROOT
BRANCH   1   3
ATOM      3  C   UNL     1      -1.778   0.493  -0.255  1.00  0.00     0.021 A 
ATOM      4  C   UNL     1      -2.957  -0.289  -0.185  1.00  0.00     0.171 A 
ATOM      5  C   UNL     1      -4.078   0.257   0.452  1.00  0.00     0.201 A 
ATOM      6  C   UNL     1      -1.763   1.796   0.279  1.00  0.00     0.016 A 
ATOM      7  C   UNL     1      -4.035   1.551   0.987  1.00  0.00     0.161 A 
ATOM      8  C   UNL     1      -2.890   2.328   0.904  1.00  0.00     0.051 A 
BRANCH   4   9
ATOM      9  O   UNL     1      -2.856  -1.536  -0.749  1.00  0.00    -0.492 OA
ATOM     10  C   UNL     1      -4.022  -2.339  -0.843  1.00  0.00     0.278 C 
ENDBRANCH   4   9
BRANCH   5  11
ATOM     11  O   UNL     1      -5.259  -0.424   0.596  1.00  0.00    -0.502 OA
ATOM     12  H   UNL     1      -5.848   0.194   1.074  1.00  0.00     0.293 HD
ENDBRANCH   5  11
BRANCH   7  13
ATOM     13  O   UNL     1      -5.172   2.019   1.594  1.00  0.00    -0.504 OA
ATOM     14  H   UNL     1      -5.003   2.926   1.903  1.00  0.00     0.293 HD
ENDBRANCH   7  13
ENDBRANCH   1   3
BRANCH   2  15
ATOM     15  C   UNL     1       1.806  -0.564  -1.129  1.00  0.00     0.185 C 
ATOM     16  O   UNL     1       1.670  -1.147  -2.200  1.00  0.00    -0.289 OA
BRANCH  15  17
ATOM     17  C   UNL     1       3.158  -0.436  -0.523  1.00  0.00     0.022 A 
ATOM     18  C   UNL     1       3.526   0.656   0.277  1.00  0.00     0.016 A 
ATOM     19  C   UNL     1       4.100  -1.436  -0.800  1.00  0.00     0.016 A 
ATOM     20  C   UNL     1       4.815   0.730   0.816  1.00  0.00     0.047 A 
ATOM     21  C   UNL     1       5.385  -1.361  -0.260  1.00  0.00     0.047 A 
ATOM     22  C   UNL     1       5.731  -0.282   0.545  1.00  0.00     0.115 A 
BRANCH  22  23
ATOM     23  O   UNL     1       6.996  -0.249   1.050  1.00  0.00    -0.508 OA
ATOM     24  H   UNL     1       7.106   0.560   1.576  1.00  0.00     0.293 HD
ENDBRANCH  22  23
ENDBRANCH  15  17
ENDBRANCH   2  15
TORSDOF 7
