REMARK SMILES C[C@H](CCC(=O)O)[C@H]1CC(=O)[C@@]2(C)C3=C(C(=O)C[C@]12C)[C@@]1(C)CCC(=O)C(C)(C)[C@@H]1C[C@@H]3O
REMARK SMILES IDX 3 1 2 2 1 3 8 4 9 5 19 6 10 7 12 8 18 9 11 10 14 11 16 12
REMARK SMILES IDX 15 13 32 14 17 15 21 16 31 17 30 18 23 19 27 20 24 21 25 22
REMARK SMILES IDX 26 23 20 24 13 25 22 26 28 27 29 28 33 29 4 31 5 32 6 33
REMARK SMILES IDX 7 34
REMARK H PARENT 33 30 7 35
ROOT
ATOM      1  C   UNL     1       5.627   0.358   0.566  1.00  0.00     0.015 C 
ENDROOT
BRANCH   1   2
ATOM      2  C   UNL     1       4.293  -0.447   0.541  1.00  0.00    -0.010 C 
ATOM      3  C   UNL     1       4.240  -1.317   1.803  1.00  0.00     0.008 C 
BRANCH   2   4
ATOM      4  C   UNL     1       3.056   0.498   0.427  1.00  0.00     0.007 C 
ATOM      5  C   UNL     1       3.083   1.316  -0.888  1.00  0.00     0.081 C 
ATOM      6  C   UNL     1       1.609  -0.104   0.420  1.00  0.00    -0.006 C 
ATOM      7  C   UNL     1       1.635   1.693  -1.110  1.00  0.00     0.143 C 
ATOM      8  C   UNL     1       0.728   1.117  -0.020  1.00  0.00     0.056 C 
ATOM      9  C   UNL     1       1.061  -0.584   1.767  1.00  0.00     0.089 C 
ATOM     10  O   UNL     1       1.262   2.424  -2.022  1.00  0.00    -0.299 OA
ATOM     11  C   UNL     1      -0.686   0.628  -0.285  1.00  0.00    -0.021 C 
ATOM     12  C   UNL     1      -0.463  -0.708   1.786  1.00  0.00     0.160 C 
ATOM     13  C   UNL     1      -1.300  -0.165   0.634  1.00  0.00     0.004 C 
ATOM     14  C   UNL     1      -1.379   1.105  -1.538  1.00  0.00     0.142 C 
ATOM     15  O   UNL     1      -0.996  -1.255   2.751  1.00  0.00    -0.295 OA
ATOM     16  C   UNL     1      -2.797  -0.556   0.564  1.00  0.00     0.000 C 
ATOM     17  C   UNL     1      -2.757   0.486  -1.771  1.00  0.00     0.042 C 
ATOM     18  C   UNL     1      -3.548   0.369  -0.467  1.00  0.00     0.015 C 
ATOM     19  C   UNL     1      -3.510  -0.370   1.943  1.00  0.00     0.020 C 
ATOM     20  C   UNL     1      -5.062   0.023  -0.689  1.00  0.00     0.027 C 
ATOM     21  C   UNL     1      -4.995  -0.020   1.893  1.00  0.00     0.077 C 
ATOM     22  C   UNL     1      -5.651  -0.502   0.625  1.00  0.00     0.138 C 
ATOM     23  O   UNL     1      -6.651  -1.217   0.664  1.00  0.00    -0.299 OA
ATOM     24  C   UNL     1       1.543  -1.294  -0.590  1.00  0.00     0.013 C 
ATOM     25  C   UNL     1       0.618   2.287   1.001  1.00  0.00     0.025 C 
ATOM     26  C   UNL     1      -2.842  -2.053   0.175  1.00  0.00     0.017 C 
ATOM     27  C   UNL     1      -5.326  -0.990  -1.818  1.00  0.00     0.020 C 
ATOM     28  C   UNL     1      -5.843   1.310  -1.034  1.00  0.00     0.020 C 
BRANCH  14  29
ATOM     29  O   UNL     1      -0.600   0.732  -2.669  1.00  0.00    -0.389 OA
ATOM     30  H   UNL     1      -0.025   1.499  -2.875  1.00  0.00     0.211 HD
ENDBRANCH  14  29
ENDBRANCH   2   4
ENDBRANCH   1   2
BRANCH   1  31
ATOM     31  C   UNL     1       6.325   0.486  -0.788  1.00  0.00     0.123 C 
BRANCH  31  32
ATOM     32  C   UNL     1       6.836  -0.835  -1.288  1.00  0.00     0.303 C 
ATOM     33  O   UNL     1       6.323  -1.521  -2.156  1.00  0.00    -0.252 OA
BRANCH  32  34
ATOM     34  O   UNL     1       7.955  -1.237  -0.659  1.00  0.00    -0.481 OA
ATOM     35  H   UNL     1       8.171  -2.097  -1.076  1.00  0.00     0.296 HD
ENDBRANCH  32  34
ENDBRANCH  31  32
ENDBRANCH   1  31
TORSDOF 6
