REMARK SMILES C=C(C)[C@H](CC=C(C)C)Cc1c(O)cc(OC)c2c1O[C@H](c1ccc(O)cc1O)[C@@H](O)C2=O
REMARK SMILES IDX 10 1 4 2 5 3 6 4 7 5 8 6 9 7 2 8 1 9 3 10 11 11 19 12 12 13
REMARK SMILES IDX 18 14 20 15 14 16 15 17 32 18 21 19 33 20 30 21 13 22 16 24
REMARK SMILES IDX 17 25 22 26 28 27 23 28 27 29 24 30 25 31 29 32 26 34 31 36
REMARK H PARENT 13 23 29 33 26 35 31 37
ROOT
ATOM      1  C   UNL     1       0.864   1.972  -0.809  1.00  0.00     0.051 C 
ENDROOT
BRANCH   1   2
ATOM      2  C   UNL     1       2.202   1.210  -1.034  1.00  0.00     0.022 C 
BRANCH   2   3
ATOM      3  C   UNL     1       2.151  -0.266  -0.550  1.00  0.00     0.035 C 
BRANCH   3   4
ATOM      4  C   UNL     1       1.251  -1.174  -1.349  1.00  0.00    -0.028 C 
ATOM      5  C   UNL     1       1.581  -2.273  -2.056  1.00  0.00    -0.080 C 
ATOM      6  C   UNL     1       0.517  -3.058  -2.781  1.00  0.00     0.039 C 
ATOM      7  C   UNL     1       2.968  -2.830  -2.216  1.00  0.00     0.039 C 
ENDBRANCH   3   4
ENDBRANCH   2   3
BRANCH   2   8
ATOM      8  C   UNL     1       2.751   1.313  -2.465  1.00  0.00    -0.077 C 
ATOM      9  C   UNL     1       1.998   1.544  -3.555  1.00  0.00     0.008 C 
ATOM     10  C   UNL     1       4.244   1.153  -2.599  1.00  0.00     0.039 C 
ENDBRANCH   2   8
ENDBRANCH   1   2
BRANCH   1  11
ATOM     11  C   UNL     1       0.496   2.173   0.653  1.00  0.00     0.038 A 
ATOM     12  C   UNL     1      -0.530   1.429   1.266  1.00  0.00     0.142 A 
ATOM     13  C   UNL     1       1.187   3.107   1.434  1.00  0.00     0.126 A 
ATOM     14  C   UNL     1      -0.852   1.624   2.619  1.00  0.00     0.105 A 
ATOM     15  O   UNL     1      -1.208   0.556   0.459  1.00  0.00    -0.481 OA
ATOM     16  C   UNL     1       0.885   3.301   2.781  1.00  0.00     0.093 A 
ATOM     17  C   UNL     1      -0.134   2.560   3.389  1.00  0.00     0.137 A 
ATOM     18  C   UNL     1      -1.971   0.824   3.187  1.00  0.00     0.202 C 
ATOM     19  C   UNL     1      -1.842  -0.542   1.130  1.00  0.00     0.244 C 
ATOM     20  O   UNL     1      -2.279   0.831   4.378  1.00  0.00    -0.291 OA
ATOM     21  C   UNL     1      -2.774  -0.028   2.222  1.00  0.00     0.231 C 
BRANCH  13  22
ATOM     22  O   UNL     1       2.175   3.849   0.847  1.00  0.00    -0.507 OA
ATOM     23  H   UNL     1       2.542   4.479   1.489  1.00  0.00     0.293 HD
ENDBRANCH  13  22
BRANCH  17  24
ATOM     24  O   UNL     1      -0.498   2.721   4.697  1.00  0.00    -0.496 OA
ATOM     25  C   UNL     1       0.334   3.499   5.546  1.00  0.00     0.278 C 
ENDBRANCH  17  24
BRANCH  19  26
ATOM     26  C   UNL     1      -2.595  -1.378   0.097  1.00  0.00     0.038 A 
ATOM     27  C   UNL     1      -2.974  -2.703   0.368  1.00  0.00     0.126 A 
ATOM     28  C   UNL     1      -2.911  -0.861  -1.174  1.00  0.00     0.015 A 
ATOM     29  C   UNL     1      -3.587  -3.505  -0.593  1.00  0.00     0.092 A 
ATOM     30  C   UNL     1      -3.544  -1.652  -2.136  1.00  0.00     0.047 A 
ATOM     31  C   UNL     1      -3.868  -2.969  -1.842  1.00  0.00     0.119 A 
BRANCH  27  32
ATOM     32  O   UNL     1      -2.774  -3.274   1.595  1.00  0.00    -0.507 OA
ATOM     33  H   UNL     1      -3.015  -2.600   2.270  1.00  0.00     0.293 HD
ENDBRANCH  27  32
BRANCH  31  34
ATOM     34  O   UNL     1      -4.472  -3.710  -2.814  1.00  0.00    -0.508 OA
ATOM     35  H   UNL     1      -4.623  -4.605  -2.467  1.00  0.00     0.293 HD
ENDBRANCH  31  34
ENDBRANCH  19  26
BRANCH  21  36
ATOM     36  O   UNL     1      -3.346  -1.109   2.985  1.00  0.00    -0.381 OA
ATOM     37  H   UNL     1      -3.582  -0.708   3.851  1.00  0.00     0.211 HD
ENDBRANCH  21  36
ENDBRANCH   1  11
TORSDOF 11
