REMARK SMILES Cc1cccc2c3c(ccc12)C(O)=C(C(C)C)C(=O)C3=O
REMARK SMILES IDX 1 1 2 2 11 3 10 4 9 5 8 6 7 7 6 8 5 9 4 10 3 11 20 12 21 13
REMARK SMILES IDX 18 14 19 15 14 16 12 17 13 18 15 20 16 21 17 22
REMARK H PARENT 13 19
ROOT
ATOM      1  C   UNL     1       5.110  -0.930  -0.025  1.00  0.00     0.045 C 
ATOM      2  C   UNL     1       4.098   0.183  -0.130  1.00  0.00    -0.043 A 
ATOM      3  C   UNL     1       2.697  -0.057  -0.047  1.00  0.00    -0.015 A 
ATOM      4  C   UNL     1       2.177  -1.356   0.118  1.00  0.00     0.010 A 
ATOM      5  C   UNL     1       0.806  -1.605   0.198  1.00  0.00     0.013 A 
ATOM      6  C   UNL     1      -0.113  -0.557   0.134  1.00  0.00     0.029 A 
ATOM      7  C   UNL     1       0.384   0.746  -0.054  1.00  0.00     0.045 A 
ATOM      8  C   UNL     1       1.782   1.027  -0.146  1.00  0.00    -0.006 A 
ATOM      9  C   UNL     1       2.322   2.319  -0.354  1.00  0.00     0.009 A 
ATOM     10  C   UNL     1       3.694   2.547  -0.438  1.00  0.00     0.001 A 
ATOM     11  C   UNL     1       4.577   1.486  -0.324  1.00  0.00     0.004 A 
ATOM     12  C   UNL     1      -0.649   1.802  -0.159  1.00  0.00     0.234 C 
ATOM     13  O   UNL     1      -0.493   2.957   0.205  1.00  0.00    -0.285 OA
ATOM     14  C   UNL     1      -1.996   1.360  -0.699  1.00  0.00     0.233 C 
ATOM     15  O   UNL     1      -2.612   2.061  -1.486  1.00  0.00    -0.285 OA
ATOM     16  C   UNL     1      -2.498   0.058  -0.189  1.00  0.00     0.049 C 
ATOM     17  C   UNL     1      -1.570  -0.815   0.241  1.00  0.00     0.131 C 
ENDROOT
BRANCH  17  18
ATOM     18  O   UNL     1      -1.953  -2.022   0.792  1.00  0.00    -0.507 OA
ATOM     19  H   UNL     1      -1.305  -2.278   1.471  1.00  0.00     0.293 HD
ENDBRANCH  17  18
BRANCH  16  20
ATOM     20  C   UNL     1      -4.001  -0.141  -0.202  1.00  0.00     0.021 C 
ATOM     21  C   UNL     1      -4.578  -0.341   1.203  1.00  0.00     0.013 C 
ATOM     22  C   UNL     1      -4.423  -1.278  -1.136  1.00  0.00     0.013 C 
ENDBRANCH  16  20
TORSDOF 2
