REMARK SMILES C=C1CCCc2c1ccc1c2C(=O)C(=O)c2c(C)coc2-1
REMARK SMILES IDX 18 1 17 2 19 3 20 4 21 5 16 6 14 7 15 8 12 9 13 10 11 11
REMARK SMILES IDX 10 12 9 13 8 14 7 15 6 16 5 17 4 18 3 19 2 20 1 21
REMARK H PARENT
ROOT
ATOM      1  C   UNL     1       5.613  -0.831   0.053  1.00  0.00     0.048 C 
ATOM      2  C   UNL     1       4.393  -0.015   0.267  1.00  0.00    -0.001 A 
ATOM      3  C   UNL     1       4.322   1.310   0.660  1.00  0.00     0.200 A 
ATOM      4  O   UNL     1       3.028   1.728   0.748  1.00  0.00    -0.463 OA
ATOM      5  C   UNL     1       2.265   0.661   0.412  1.00  0.00     0.146 A 
ATOM      6  C   UNL     1       3.042  -0.426   0.113  1.00  0.00     0.075 A 
ATOM      7  C   UNL     1       2.397  -1.655  -0.271  1.00  0.00     0.237 C 
ATOM      8  O   UNL     1       3.026  -2.640  -0.633  1.00  0.00    -0.285 OA
ATOM      9  C   UNL     1       0.853  -1.692  -0.208  1.00  0.00     0.234 C 
ATOM     10  O   UNL     1       0.295  -2.777  -0.313  1.00  0.00    -0.285 OA
ATOM     11  C   UNL     1       0.086  -0.402   0.024  1.00  0.00     0.041 A 
ATOM     12  C   UNL     1       0.824   0.754   0.375  1.00  0.00     0.030 A 
ATOM     13  C   UNL     1       0.164   1.944   0.673  1.00  0.00     0.013 A 
ATOM     14  C   UNL     1      -1.227   2.001   0.620  1.00  0.00     0.009 A 
ATOM     15  C   UNL     1      -1.993   0.886   0.242  1.00  0.00    -0.019 A 
ATOM     16  C   UNL     1      -1.333  -0.334  -0.067  1.00  0.00    -0.028 A 
ATOM     17  C   UNL     1      -2.147  -1.557  -0.454  1.00  0.00     0.037 C 
ATOM     18  C   UNL     1      -3.612  -1.280  -0.778  1.00  0.00     0.010 C 
ATOM     19  C   UNL     1      -4.214  -0.342   0.252  1.00  0.00     0.036 C 
ATOM     20  C   UNL     1      -3.479   0.972   0.203  1.00  0.00    -0.048 C 
ATOM     21  C   UNL     1      -4.158   2.124   0.058  1.00  0.00     0.013 C 
ENDROOT
TORSDOF 0
