REMARK SMILES O=C1CCC[C@@H]2[C@H]3CCC[N@+]4([O-])CCC[C@@H](CN12)[C@@H]34
REMARK SMILES IDX 4 1 5 2 6 3 7 4 8 5 9 6 10 7 11 8 19 9 16 10 15 11 14 12
REMARK SMILES IDX 13 13 17 14 18 15 2 16 1 17 3 18 12 19
REMARK H PARENT
ROOT
ATOM      1  C   UNL     1       3.668   0.553   0.147  1.00  0.00     0.012 C 
ATOM      2  C   UNL     1       2.752   0.615  -1.061  1.00  0.00     0.026 C 
ATOM      3  C   UNL     1       1.380   0.008  -0.743  1.00  0.00     0.094 C 
ATOM      4  C   UNL     1       0.445   0.939   0.086  1.00  0.00     0.071 C 
ATOM      5  C   UNL     1       0.183   2.257  -0.672  1.00  0.00     0.018 C 
ATOM      6  C   UNL     1      -1.166   2.858  -0.326  1.00  0.00     0.062 C 
ATOM      7  C   UNL     1      -2.319   1.916  -0.656  1.00  0.00     0.264 C 
ATOM      8  N   UNL     1      -1.978   0.429  -0.531  1.00  0.00    -0.359 N 
ATOM      9  C   UNL     1      -0.886   0.241   0.528  1.00  0.00     0.195 C 
ATOM     10  C   UNL     1      -0.685  -1.225   0.989  1.00  0.00     0.068 C 
ATOM     11  C   UNL     1      -2.001  -1.964   1.241  1.00  0.00     0.017 C 
ATOM     12  C   UNL     1      -2.991  -1.790   0.102  1.00  0.00     0.062 C 
ATOM     13  C   UNL     1      -3.242  -0.313  -0.141  1.00  0.00     0.264 C 
ATOM     14  C   UNL     1       0.234  -2.001   0.045  1.00  0.00     0.129 C 
ATOM     15  N   UNL     1       1.493  -1.280  -0.060  1.00  0.00    -0.339 N 
ATOM     16  C   UNL     1       2.559  -1.651   0.742  1.00  0.00     0.222 C 
ATOM     17  O   UNL     1       2.506  -2.596   1.530  1.00  0.00    -0.275 OA
ATOM     18  C   UNL     1       3.858  -0.894   0.556  1.00  0.00     0.100 C 
ATOM     19  O   UNL     1      -1.557  -0.037  -1.751  1.00  0.00    -0.633 OA
ENDROOT
TORSDOF 0
