REMARK SMILES COc1cc2c(c(O)c1OC)-c1c(cc(OC)c(OC)c1OC)C[C@@H](C)[C@@H](C)C2
REMARK SMILES IDX 12 1 21 2 18 3 15 4 14 5 13 6 24 7 25 8 26 9 27 10 28 11
REMARK SMILES IDX 6 13 7 14 5 15 9 16 4 17 3 18 8 19 29 21 10 23 11 24 2 25
REMARK SMILES IDX 1 26 16 27 17 28 22 29 23 30 19 31 20 32
REMARK H PARENT 8 20
REMARK Flexibility Score:    8.900
ROOT
ATOM      1  C   UNL     1      -0.037   0.866   0.051  1.00  0.00     0.035 A 
ATOM      2  C   UNL     1       0.277   1.996   0.833  1.00  0.00     0.172 A 
ATOM      3  C   UNL     1      -0.641   3.044   1.007  1.00  0.00     0.203 A 
ATOM      4  C   UNL     1      -1.928   2.966   0.461  1.00  0.00     0.164 A 
ATOM      5  C   UNL     1      -2.264   1.843  -0.297  1.00  0.00     0.055 A 
ATOM      6  C   UNL     1      -1.333   0.803  -0.513  1.00  0.00    -0.032 A 
ENDROOT
BRANCH   6   7
ATOM      7  C   UNL     1      -1.788  -0.435  -1.253  1.00  0.00     0.040 C 
BRANCH   7   8
ATOM      8  C   UNL     1      -2.403  -1.484  -0.299  1.00  0.00    -0.007 C 
ATOM      9  C   UNL     1      -2.475  -2.836  -1.018  1.00  0.00     0.008 C 
BRANCH   8  10
ATOM     10  C   UNL     1      -1.725  -1.560   1.104  1.00  0.00    -0.007 CG0
ATOM     11  C   UNL     1      -2.568  -2.416   2.068  1.00  0.00     0.008 C 
ATOM     12  G   UNL     1      -0.271  -2.071   1.131  1.00  0.00     0.000 G0
ENDBRANCH   8  10
ENDBRANCH   7   8
ENDBRANCH   6   7
BRANCH   1  13
ATOM     13  C   UNL     1       0.966  -0.195  -0.222  1.00  0.00     0.035 A 
ATOM     14  C   UNL     1       2.102   0.115  -1.013  1.00  0.00     0.170 A 
ATOM     15  C   UNL     1       0.815  -1.538   0.207  1.00  0.00    -0.032 A 
ATOM     16  C   UNL     1       3.035  -0.857  -1.397  1.00  0.00     0.203 A 
ATOM     17  C   UNL     1       1.801  -2.495  -0.162  1.00  0.00     0.055 A 
ATOM     18  C   UNL     1       2.901  -2.173  -0.959  1.00  0.00     0.164 A 
BRANCH  14  19
ATOM     19  O   UNL     1       2.333   1.404  -1.441  1.00  0.00    -0.504 OA
ATOM     20  H   UNL     1       2.187   1.975  -0.664  1.00  0.00     0.293 HD
ENDBRANCH  14  19
BRANCH  15  21
ATOM     21  C   UNL     1      -0.271  -2.071   1.131  1.00  0.00     0.040 CG0
ATOM     22  G   UNL     1      -1.725  -1.560   1.104  1.00  0.00     0.000 G0
ENDBRANCH  15  21
BRANCH  16  23
ATOM     23  O   UNL     1       4.140  -0.497  -2.134  1.00  0.00    -0.490 OA
ATOM     24  C   UNL     1       3.818  -0.516  -3.523  1.00  0.00     0.278 C 
ENDBRANCH  16  23
BRANCH  18  25
ATOM     25  O   UNL     1       3.872  -3.052  -1.359  1.00  0.00    -0.493 OA
ATOM     26  C   UNL     1       3.830  -4.366  -0.824  1.00  0.00     0.278 C 
ENDBRANCH  18  25
ENDBRANCH   1  13
BRANCH   4  27
ATOM     27  O   UNL     1      -2.764   4.019   0.721  1.00  0.00    -0.493 OA
ATOM     28  C   UNL     1      -4.091   3.942   0.220  1.00  0.00     0.278 C 
ENDBRANCH   4  27
BRANCH   2  29
ATOM     29  O   UNL     1       1.556   2.123   1.335  1.00  0.00    -0.492 OA
ATOM     30  C   UNL     1       1.577   1.739   2.711  1.00  0.00     0.278 C 
ENDBRANCH   2  29
BRANCH   3  31
ATOM     31  O   UNL     1      -0.279   4.133   1.766  1.00  0.00    -0.490 OA
ATOM     32  C   UNL     1       0.239   5.161   0.921  1.00  0.00     0.278 C 
ENDBRANCH   3  31
TORSDOF 6
