REMARK SMILES COc1cc2c(c(OC)c1OC)-c1c(cc3c(c1OC)OCO3)C[C@H](C)[C@H](C)C2
REMARK SMILES IDX 14 1 15 2 16 3 17 4 18 5 13 6 21 7 22 8 23 9 24 10 25 11
REMARK SMILES IDX 26 12 27 13 28 14 6 16 7 17 5 18 10 19 4 20 3 21 8 22 9 23
REMARK SMILES IDX 29 24 11 26 12 27 2 28 1 29 19 30 20 31
REMARK H PARENT
REMARK Flexibility Score:    8.900
ROOT
ATOM      1  C   UNL     1      -1.455   1.304   0.657  1.00  0.00    -0.032 A 
ATOM      2  C   UNL     1      -2.258   2.443   0.488  1.00  0.00     0.055 A 
ATOM      3  C   UNL     1      -1.995   3.270  -0.582  1.00  0.00     0.170 A 
ATOM      4  C   UNL     1      -0.986   3.011  -1.479  1.00  0.00     0.208 A 
ATOM      5  C   UNL     1      -0.161   1.905  -1.338  1.00  0.00     0.173 A 
ATOM      6  C   UNL     1      -0.386   1.026  -0.251  1.00  0.00     0.035 A 
ATOM      7  O   UNL     1      -0.949   3.942  -2.475  1.00  0.00    -0.450 OA
ATOM      8  C   UNL     1      -2.033   4.809  -2.095  1.00  0.00     0.468 C 
ATOM      9  O   UNL     1      -2.703   4.391  -0.891  1.00  0.00    -0.453 OA
ENDROOT
BRANCH   1  10
ATOM     10  C   UNL     1      -1.817   0.301   1.729  1.00  0.00     0.040 C 
BRANCH  10  11
ATOM     11  C   UNL     1      -2.783  -0.790   1.206  1.00  0.00    -0.007 C 
ATOM     12  C   UNL     1      -2.777  -1.974   2.179  1.00  0.00     0.008 C 
BRANCH  11  13
ATOM     13  C   UNL     1      -2.563  -1.207  -0.282  1.00  0.00    -0.007 CG0
ATOM     14  C   UNL     1      -3.748  -2.055  -0.786  1.00  0.00     0.008 C 
ATOM     15  G   UNL     1      -1.251  -1.957  -0.602  1.00  0.00     0.000 G0
ENDBRANCH  11  13
ENDBRANCH  10  11
ENDBRANCH   1  10
BRANCH   6  16
ATOM     16  C   UNL     1       0.516  -0.124  -0.005  1.00  0.00     0.035 A 
ATOM     17  C   UNL     1       1.839   0.136   0.439  1.00  0.00     0.172 A 
ATOM     18  C   UNL     1       0.111  -1.474  -0.129  1.00  0.00    -0.032 A 
ATOM     19  C   UNL     1       2.761  -0.898   0.654  1.00  0.00     0.203 A 
ATOM     20  C   UNL     1       1.059  -2.501   0.126  1.00  0.00     0.055 A 
ATOM     21  C   UNL     1       2.372  -2.230   0.519  1.00  0.00     0.164 A 
BRANCH  17  22
ATOM     22  O   UNL     1       2.244   1.445   0.614  1.00  0.00    -0.492 OA
ATOM     23  C   UNL     1       2.242   1.781   2.002  1.00  0.00     0.278 C 
ENDBRANCH  17  22
BRANCH  18  24
ATOM     24  C   UNL     1      -1.251  -1.957  -0.602  1.00  0.00     0.040 CG0
ATOM     25  G   UNL     1      -2.563  -1.207  -0.282  1.00  0.00     0.000 G0
ENDBRANCH  18  24
BRANCH  19  26
ATOM     26  O   UNL     1       4.044  -0.603   1.057  1.00  0.00    -0.490 OA
ATOM     27  C   UNL     1       4.864  -0.386  -0.091  1.00  0.00     0.278 C 
ENDBRANCH  19  26
BRANCH  21  28
ATOM     28  O   UNL     1       3.331  -3.175   0.773  1.00  0.00    -0.493 OA
ATOM     29  C   UNL     1       2.940  -4.539   0.720  1.00  0.00     0.278 C 
ENDBRANCH  21  28
ENDBRANCH   6  16
BRANCH   5  30
ATOM     30  O   UNL     1       0.817   1.573  -2.241  1.00  0.00    -0.492 OA
ATOM     31  C   UNL     1       1.681   2.657  -2.569  1.00  0.00     0.278 C 
ENDBRANCH   5  30
TORSDOF 4
