REMARK SMILES COc1cc2c(c(OC)c1OC)-c1c(cc3c(c1OC)OCO3)C[C@H](C)[C@H](C)[C@H]2O
REMARK SMILES IDX 14 1 15 2 16 3 17 4 18 5 13 6 21 7 22 8 23 9 24 10 25 11
REMARK SMILES IDX 26 12 27 13 28 14 6 16 7 17 5 18 10 19 4 20 3 21 8 22 9 23
REMARK SMILES IDX 29 24 30 26 11 28 12 29 2 30 1 31 19 32 20 33
REMARK H PARENT 30 27
REMARK Flexibility Score:    8.900
ROOT
ATOM      1  C   UNL     1       0.753  -1.814  -0.630  1.00  0.00    -0.032 A 
ATOM      2  C   UNL     1       1.087  -3.175  -0.464  1.00  0.00     0.055 A 
ATOM      3  C   UNL     1       0.525  -3.878   0.579  1.00  0.00     0.170 A 
ATOM      4  C   UNL     1      -0.339  -3.290   1.466  1.00  0.00     0.208 A 
ATOM      5  C   UNL     1      -0.696  -1.960   1.338  1.00  0.00     0.173 A 
ATOM      6  C   UNL     1      -0.186  -1.204   0.253  1.00  0.00     0.035 A 
ATOM      7  O   UNL     1      -0.760  -4.160   2.425  1.00  0.00    -0.450 OA
ATOM      8  C   UNL     1      -0.087  -5.366   2.018  1.00  0.00     0.468 C 
ATOM      9  O   UNL     1       0.758  -5.187   0.863  1.00  0.00    -0.453 OA
ENDROOT
BRANCH   1  10
ATOM     10  C   UNL     1       1.436  -1.040  -1.742  1.00  0.00     0.040 C 
BRANCH  10  11
ATOM     11  C   UNL     1       2.767  -0.336  -1.367  1.00  0.00    -0.004 C 
ATOM     12  C   UNL     1       3.741  -1.275  -0.638  1.00  0.00     0.008 C 
BRANCH  11  13
ATOM     13  C   UNL     1       2.613   1.058  -0.670  1.00  0.00     0.022 CG0
ATOM     14  C   UNL     1       3.995   1.691  -0.422  1.00  0.00     0.011 C 
ATOM     15  G   UNL     1       1.722   1.052   0.607  1.00  0.00     0.000 G0
ENDBRANCH  11  13
ENDBRANCH  10  11
ENDBRANCH   1  10
BRANCH   6  16
ATOM     16  C   UNL     1      -0.628   0.192   0.048  1.00  0.00     0.038 A 
ATOM     17  C   UNL     1      -1.953   0.461  -0.388  1.00  0.00     0.172 A 
ATOM     18  C   UNL     1       0.255   1.278   0.253  1.00  0.00    -0.004 A 
ATOM     19  C   UNL     1      -2.421   1.772  -0.564  1.00  0.00     0.203 A 
ATOM     20  C   UNL     1      -0.232   2.590   0.071  1.00  0.00     0.057 A 
ATOM     21  C   UNL     1      -1.560   2.831  -0.286  1.00  0.00     0.165 A 
BRANCH  17  22
ATOM     22  O   UNL     1      -2.813  -0.595  -0.606  1.00  0.00    -0.492 OA
ATOM     23  C   UNL     1      -2.857  -0.935  -1.990  1.00  0.00     0.278 C 
ENDBRANCH  17  22
BRANCH  18  24
ATOM     24  C   UNL     1       1.722   1.052   0.607  1.00  0.00     0.148 CG0
ATOM     25  G   UNL     1       2.613   1.058  -0.670  1.00  0.00     0.000 G0
BRANCH  24  26
ATOM     26  O   UNL     1       2.121   2.048   1.556  1.00  0.00    -0.388 OA
ATOM     27  H   UNL     1       2.251   2.885   1.085  1.00  0.00     0.211 HD
ENDBRANCH  24  26
ENDBRANCH  18  24
BRANCH  19  28
ATOM     28  O   UNL     1      -3.728   1.943  -0.948  1.00  0.00    -0.490 OA
ATOM     29  C   UNL     1      -3.867   2.765  -2.105  1.00  0.00     0.278 C 
ENDBRANCH  19  28
BRANCH  21  30
ATOM     30  O   UNL     1      -1.947   4.144  -0.380  1.00  0.00    -0.493 OA
ATOM     31  C   UNL     1      -2.678   4.516   0.792  1.00  0.00     0.278 C 
ENDBRANCH  21  30
ENDBRANCH   6  16
BRANCH   5  32
ATOM     32  O   UNL     1      -1.576  -1.393   2.222  1.00  0.00    -0.492 OA
ATOM     33  C   UNL     1      -0.912  -1.053   3.438  1.00  0.00     0.278 C 
ENDBRANCH   5  32
TORSDOF 5
