REMARK SMILES Cc1coc2c1C(=O)C(=O)c1c-2ccc2c(C)cccc12
REMARK SMILES IDX 17 1 16 2 15 3 14 4 13 5 12 6 11 7 21 8 20 9 19 10 18 11
REMARK SMILES IDX 9 12 10 13 7 14 8 15 6 16 5 17 4 18 3 19 2 20 1 21
REMARK H PARENT
ROOT
ATOM      1  C   UNL     1      -4.775  -0.495   0.351  1.00  0.00     0.045 C 
ATOM      2  C   UNL     1      -3.662   0.313  -0.271  1.00  0.00    -0.043 A 
ATOM      3  C   UNL     1      -2.289   0.039  -0.011  1.00  0.00    -0.015 A 
ATOM      4  C   UNL     1      -1.910  -1.019   0.839  1.00  0.00     0.010 A 
ATOM      5  C   UNL     1      -0.577  -1.321   1.099  1.00  0.00     0.013 A 
ATOM      6  C   UNL     1       0.431  -0.556   0.524  1.00  0.00     0.030 A 
ATOM      7  C   UNL     1       0.105   0.534  -0.321  1.00  0.00     0.045 A 
ATOM      8  C   UNL     1      -1.268   0.835  -0.615  1.00  0.00    -0.006 A 
ATOM      9  C   UNL     1      -1.699   1.870  -1.484  1.00  0.00     0.009 A 
ATOM     10  C   UNL     1      -3.046   2.129  -1.736  1.00  0.00     0.001 A 
ATOM     11  C   UNL     1      -4.022   1.358  -1.131  1.00  0.00     0.004 A 
ATOM     12  C   UNL     1       1.257   1.369  -0.860  1.00  0.00     0.235 C 
ATOM     13  O   UNL     1       1.100   2.466  -1.379  1.00  0.00    -0.285 OA
ATOM     14  C   UNL     1       2.704   0.851  -0.705  1.00  0.00     0.237 C 
ATOM     15  O   UNL     1       3.619   1.373  -1.329  1.00  0.00    -0.285 OA
ATOM     16  C   UNL     1       2.915  -0.249   0.198  1.00  0.00     0.075 A 
ATOM     17  C   UNL     1       1.824  -0.861   0.750  1.00  0.00     0.146 A 
ATOM     18  O   UNL     1       2.196  -1.876   1.567  1.00  0.00    -0.463 OA
ATOM     19  C   UNL     1       3.558  -1.910   1.530  1.00  0.00     0.200 A 
ATOM     20  C   UNL     1       4.060  -0.929   0.693  1.00  0.00    -0.001 A 
ATOM     21  C   UNL     1       5.481  -0.645   0.382  1.00  0.00     0.048 C 
ENDROOT
TORSDOF 0
