REMARK SMILES O=C1CCC[C@@H]2[C@H]3CCCN4CCC[C@H](CN12)[C@@H]34
REMARK SMILES IDX 4 1 5 2 6 3 7 4 8 5 9 6 10 7 11 8 18 9 15 10 14 11 13 12
REMARK SMILES IDX 12 13 16 14 17 15 2 16 1 17 3 18
REMARK H PARENT
ROOT
ATOM      1  C   UNL     1      -3.681   0.287  -0.353  1.00  0.00     0.012 C 
ATOM      2  C   UNL     1      -2.762   0.762   0.753  1.00  0.00     0.026 C 
ATOM      3  C   UNL     1      -1.392   0.082   0.660  1.00  0.00     0.089 C 
ATOM      4  C   UNL     1      -0.410   0.702  -0.362  1.00  0.00     0.029 C 
ATOM      5  C   UNL     1      -0.303   2.235  -0.302  1.00  0.00     0.008 C 
ATOM      6  C   UNL     1       0.907   2.706  -1.105  1.00  0.00     0.016 C 
ATOM      7  C   UNL     1       2.217   2.121  -0.568  1.00  0.00     0.085 C 
ATOM      8  N   UNL     1       2.011   0.941   0.269  1.00  0.00    -0.300 NA
ATOM      9  C   UNL     1       0.993   0.023  -0.267  1.00  0.00     0.066 C 
ATOM     10  C   UNL     1       0.987  -1.258   0.595  1.00  0.00     0.026 C 
ATOM     11  C   UNL     1       2.302  -2.030   0.413  1.00  0.00     0.008 C 
ATOM     12  C   UNL     1       3.474  -1.097   0.102  1.00  0.00     0.016 C 
ATOM     13  C   UNL     1       3.269   0.304   0.681  1.00  0.00     0.085 C 
ATOM     14  C   UNL     1      -0.239  -2.119   0.306  1.00  0.00     0.125 C 
ATOM     15  N   UNL     1      -1.489  -1.361   0.352  1.00  0.00    -0.339 N 
ATOM     16  C   UNL     1      -2.626  -1.999  -0.122  1.00  0.00     0.222 C 
ATOM     17  O   UNL     1      -2.627  -3.189  -0.444  1.00  0.00    -0.275 OA
ATOM     18  C   UNL     1      -3.909  -1.202  -0.184  1.00  0.00     0.100 C 
ENDROOT
TORSDOF 0
