REMARK SMILES Cc1cc2c(cc1O)[C@@]13CCCC(C)(C)[C@@H]1C[C@@H]2OC3
REMARK SMILES IDX 1 1 2 2 3 3 4 4 5 5 6 6 7 7 9 8 10 9 11 10 12 11 13 12 16 13
REMARK SMILES IDX 17 14 18 15 19 16 20 17 14 18 15 19 8 20
REMARK H PARENT 8 21
ROOT
ATOM      1  C   UNL     1       5.185   0.927  -0.564  1.00  0.00     0.048 C 
ATOM      2  C   UNL     1       3.781   0.538  -0.203  1.00  0.00    -0.009 A 
ATOM      3  C   UNL     1       2.985  -0.113  -1.158  1.00  0.00     0.014 A 
ATOM      4  C   UNL     1       1.681  -0.479  -0.836  1.00  0.00    -0.015 A 
ATOM      5  C   UNL     1       1.149  -0.217   0.447  1.00  0.00    -0.030 A 
ATOM      6  C   UNL     1       1.926   0.436   1.395  1.00  0.00     0.051 A 
ATOM      7  C   UNL     1       3.232   0.804   1.065  1.00  0.00     0.118 A 
ATOM      8  C   UNL     1      -0.302  -0.706   0.579  1.00  0.00     0.023 C 
ATOM      9  C   UNL     1      -0.951  -0.565   1.967  1.00  0.00     0.014 C 
ATOM     10  C   UNL     1      -1.697   0.756   2.112  1.00  0.00     0.002 C 
ATOM     11  C   UNL     1      -2.847   0.902   1.105  1.00  0.00     0.007 C 
ATOM     12  C   UNL     1      -2.589   0.269  -0.298  1.00  0.00    -0.032 C 
ATOM     13  C   UNL     1      -1.057   0.124  -0.518  1.00  0.00     0.010 C 
ATOM     14  C   UNL     1      -0.579  -0.341  -1.921  1.00  0.00     0.042 C 
ATOM     15  C   UNL     1       0.710  -1.173  -1.768  1.00  0.00     0.149 C 
ATOM     16  O   UNL     1       0.328  -2.414  -1.148  1.00  0.00    -0.373 OA
ATOM     17  C   UNL     1      -0.213  -2.211   0.175  1.00  0.00     0.173 C 
ATOM     18  C   UNL     1      -3.354  -1.067  -0.395  1.00  0.00     0.011 C 
ATOM     19  C   UNL     1      -3.184   1.207  -1.373  1.00  0.00     0.011 C 
ENDROOT
BRANCH   7  20
ATOM     20  O   UNL     1       3.935   1.440   2.052  1.00  0.00    -0.508 OA
ATOM     21  H   UNL     1       4.832   1.628   1.737  1.00  0.00     0.293 HD
ENDBRANCH   7  20
TORSDOF 1
