REMARK SMILES COc1cc(C2Oc3c(O)ccc([C@H]4CC(=O)c5c(O)cc(O)cc5O4)c3C2CO)ccc1O
REMARK SMILES IDX 6 1 28 2 27 3 13 4 12 5 11 6 9 7 8 8 7 9 5 10 3 11 33 12
REMARK SMILES IDX 4 13 32 14 31 15 2 16 1 17 34 18 29 20 30 21 14 23 15 24
REMARK SMILES IDX 26 25 16 26 25 27 17 28 18 29 24 30 19 31 22 32 21 33 20 34
REMARK SMILES IDX 23 36 10 38
REMARK H PARENT 34 19 30 22 20 35 23 37 10 39
ROOT
ATOM      1  C   UNL     1      -1.840   1.455   0.816  1.00  0.00     0.214 C 
ATOM      2  C   UNL     1      -0.853   0.589  -0.011  1.00  0.00     0.095 C 
ATOM      3  C   UNL     1       0.192   1.636  -0.251  1.00  0.00     0.014 A 
ATOM      4  C   UNL     1       1.520   1.534  -0.667  1.00  0.00     0.000 A 
ATOM      5  C   UNL     1       2.233   2.741  -0.839  1.00  0.00     0.012 A 
ATOM      6  C   UNL     1       1.633   3.993  -0.622  1.00  0.00     0.050 A 
ATOM      7  C   UNL     1       0.309   4.059  -0.220  1.00  0.00     0.158 A 
ATOM      8  C   UNL     1      -0.386   2.883  -0.030  1.00  0.00     0.166 A 
ATOM      9  O   UNL     1      -1.699   2.831   0.376  1.00  0.00    -0.481 OA
ENDROOT
BRANCH   1  10
ATOM     10  C   UNL     1      -3.285   0.992   0.829  1.00  0.00    -0.003 A 
ATOM     11  C   UNL     1      -4.933  -0.684   1.485  1.00  0.00     0.160 A 
ATOM     12  C   UNL     1      -5.923   0.087   0.869  1.00  0.00     0.157 A 
ATOM     13  C   UNL     1      -3.614  -0.225   1.463  1.00  0.00     0.058 A 
ATOM     14  C   UNL     1      -5.626   1.293   0.250  1.00  0.00     0.050 A 
ATOM     15  C   UNL     1      -4.308   1.747   0.233  1.00  0.00     0.011 A 
BRANCH  11  16
ATOM     16  O   UNL     1      -5.378  -1.845   2.060  1.00  0.00    -0.493 OA
ATOM     17  C   UNL     1      -4.410  -2.642   2.733  1.00  0.00     0.278 C 
ENDBRANCH  11  16
BRANCH  12  18
ATOM     18  O   UNL     1      -7.225  -0.334   0.870  1.00  0.00    -0.504 OA
ATOM     19  H   UNL     1      -7.217  -1.183   1.352  1.00  0.00     0.293 HD
ENDBRANCH  12  18
ENDBRANCH   1  10
BRANCH   2  20
ATOM     20  C   UNL     1      -1.396  -0.003  -1.322  1.00  0.00     0.168 C 
BRANCH  20  21
ATOM     21  O   UNL     1      -1.820   0.966  -2.270  1.00  0.00    -0.396 OA
ATOM     22  H   UNL     1      -2.534   1.494  -1.875  1.00  0.00     0.210 HD
ENDBRANCH  20  21
ENDBRANCH   2  20
BRANCH   4  23
ATOM     23  C   UNL     1       2.184   0.203  -0.950  1.00  0.00     0.211 C 
ATOM     24  C   UNL     1       2.441   0.018  -2.441  1.00  0.00     0.131 C 
ATOM     25  O   UNL     1       3.415   0.155  -0.208  1.00  0.00    -0.484 OA
ATOM     26  C   UNL     1       3.085  -1.325  -2.632  1.00  0.00     0.174 C 
ATOM     27  C   UNL     1       4.121  -1.001  -0.417  1.00  0.00     0.138 A 
ATOM     28  O   UNL     1       2.929  -2.010  -3.639  1.00  0.00    -0.294 OA
ATOM     29  C   UNL     1       3.993  -1.785  -1.565  1.00  0.00     0.102 A 
ATOM     30  C   UNL     1       5.022  -1.371   0.580  1.00  0.00     0.093 A 
ATOM     31  C   UNL     1       4.742  -2.960  -1.696  1.00  0.00     0.133 A 
ATOM     32  C   UNL     1       5.764  -2.540   0.436  1.00  0.00     0.123 A 
ATOM     33  C   UNL     1       5.629  -3.344  -0.693  1.00  0.00     0.093 A 
BRANCH  31  34
ATOM     34  O   UNL     1       4.661  -3.778  -2.790  1.00  0.00    -0.507 OA
ATOM     35  H   UNL     1       4.020  -3.382  -3.424  1.00  0.00     0.293 HD
ENDBRANCH  31  34
BRANCH  32  36
ATOM     36  O   UNL     1       6.625  -2.871   1.441  1.00  0.00    -0.508 OA
ATOM     37  H   UNL     1       7.095  -3.687   1.198  1.00  0.00     0.293 HD
ENDBRANCH  32  36
ENDBRANCH   4  23
BRANCH   7  38
ATOM     38  O   UNL     1      -0.274   5.270  -0.008  1.00  0.00    -0.504 OA
ATOM     39  H   UNL     1      -1.195   5.082   0.253  1.00  0.00     0.293 HD
ENDBRANCH   7  38
TORSDOF 9
