REMARK SMILES COc1cc(C[C@@H](C)[C@@H](C)Cc2cc(O)c(OC)c(OC)c2)cc(O)c1OC
REMARK SMILES IDX 8 1 7 2 6 3 5 4 23 5 4 6 24 7 3 8 26 9 25 10 2 12 1 13 27 14
REMARK SMILES IDX 28 15 9 16 10 17 11 18 12 19 13 20 22 21 14 22 19 23 16 24
REMARK SMILES IDX 15 25 20 27 21 28 17 29 18 30
REMARK H PARENT 25 11 15 26
ROOT
ATOM      1  C   UNL     1      -1.095  -1.258  -0.681  1.00  0.00     0.008 C 
ATOM      2  C   UNL     1      -0.773  -0.319   0.496  1.00  0.00    -0.007 C 
ENDROOT
BRANCH   2   3
ATOM      3  C   UNL     1      -1.665   0.949   0.415  1.00  0.00     0.039 C 
BRANCH   3   4
ATOM      4  C   UNL     1      -3.154   0.680   0.485  1.00  0.00    -0.040 A 
ATOM      5  C   UNL     1      -3.731   0.197   1.668  1.00  0.00     0.054 A 
ATOM      6  C   UNL     1      -3.973   0.925  -0.632  1.00  0.00     0.054 A 
ATOM      7  C   UNL     1      -5.100  -0.052   1.724  1.00  0.00     0.161 A 
ATOM      8  C   UNL     1      -5.351   0.681  -0.581  1.00  0.00     0.164 A 
ATOM      9  C   UNL     1      -5.905   0.172   0.603  1.00  0.00     0.203 A 
BRANCH   7  10
ATOM     10  O   UNL     1      -5.667  -0.523   2.877  1.00  0.00    -0.504 OA
ATOM     11  H   UNL     1      -5.006  -0.495   3.586  1.00  0.00     0.293 HD
ENDBRANCH   7  10
BRANCH   8  12
ATOM     12  O   UNL     1      -6.221   0.883  -1.622  1.00  0.00    -0.493 OA
ATOM     13  C   UNL     1      -5.728   1.575  -2.760  1.00  0.00     0.278 C 
ENDBRANCH   8  12
BRANCH   9  14
ATOM     14  O   UNL     1      -7.263  -0.032   0.686  1.00  0.00    -0.490 OA
ATOM     15  C   UNL     1      -7.565  -1.391   0.375  1.00  0.00     0.278 C 
ENDBRANCH   9  14
ENDBRANCH   3   4
ENDBRANCH   2   3
BRANCH   2  16
ATOM     16  C   UNL     1       0.754   0.044   0.536  1.00  0.00    -0.007 C 
ATOM     17  C   UNL     1       1.076   1.006   1.695  1.00  0.00     0.008 C 
BRANCH  16  18
ATOM     18  C   UNL     1       1.642  -1.225   0.646  1.00  0.00     0.039 C 
BRANCH  18  19
ATOM     19  C   UNL     1       3.131  -0.966   0.567  1.00  0.00    -0.040 A 
ATOM     20  C   UNL     1       3.943  -1.178   1.683  1.00  0.00     0.054 A 
ATOM     21  C   UNL     1       3.716  -0.509  -0.629  1.00  0.00     0.054 A 
ATOM     22  C   UNL     1       5.307  -0.939   1.590  1.00  0.00     0.161 A 
ATOM     23  C   UNL     1       5.095  -0.259  -0.723  1.00  0.00     0.164 A 
ATOM     24  C   UNL     1       5.904  -0.505   0.398  1.00  0.00     0.203 A 
BRANCH  22  25
ATOM     25  O   UNL     1       6.074  -1.147   2.706  1.00  0.00    -0.504 OA
ATOM     26  H   UNL     1       6.977  -0.888   2.438  1.00  0.00     0.293 HD
ENDBRANCH  22  25
BRANCH  23  27
ATOM     27  O   UNL     1       5.701   0.232  -1.849  1.00  0.00    -0.493 OA
ATOM     28  C   UNL     1       4.872   0.629  -2.934  1.00  0.00     0.278 C 
ENDBRANCH  23  27
BRANCH  24  29
ATOM     29  O   UNL     1       7.264  -0.319   0.493  1.00  0.00    -0.490 OA
ATOM     30  C   UNL     1       8.013  -0.640  -0.675  1.00  0.00     0.278 C 
ENDBRANCH  24  29
ENDBRANCH  18  19
ENDBRANCH  16  18
ENDBRANCH   2  16
TORSDOF 11
