REMARK SMILES COc1cc2c(c(O)c1OC)-c1c(cc(OC)c(OC)c1OC)C[C@@](C)(O)[C@@H](C)C2
REMARK SMILES IDX 12 1 21 2 18 3 15 4 14 5 13 6 24 7 25 8 26 9 28 10 29 11
REMARK SMILES IDX 27 13 6 15 7 16 5 17 9 18 4 19 3 20 8 21 30 23 10 25 11 26
REMARK SMILES IDX 2 27 1 28 16 29 17 30 22 31 23 32 19 33 20 34
REMARK H PARENT 27 14 8 22
REMARK Flexibility Score:    8.900
ROOT
ATOM      1  C   UNL     1      -0.601   0.642   0.259  1.00  0.00     0.035 A 
ATOM      2  C   UNL     1      -1.742   1.404  -0.093  1.00  0.00     0.172 A 
ATOM      3  C   UNL     1      -1.782   2.807   0.020  1.00  0.00     0.203 A 
ATOM      4  C   UNL     1      -0.666   3.486   0.519  1.00  0.00     0.164 A 
ATOM      5  C   UNL     1       0.486   2.753   0.822  1.00  0.00     0.055 A 
ATOM      6  C   UNL     1       0.542   1.346   0.685  1.00  0.00    -0.029 A 
ENDROOT
BRANCH   6   7
ATOM      7  C   UNL     1       1.859   0.663   1.002  1.00  0.00     0.071 C 
BRANCH   7   8
ATOM      8  C   UNL     1       2.841   0.499  -0.190  1.00  0.00     0.069 C 
ATOM      9  C   UNL     1       2.902   1.747  -1.091  1.00  0.00     0.042 C 
BRANCH   8  10
ATOM     10  C   UNL     1       2.606  -0.782  -1.051  1.00  0.00     0.022 CG0
ATOM     11  C   UNL     1       3.119  -2.062  -0.368  1.00  0.00     0.011 C 
ATOM     12  G   UNL     1       1.172  -0.936  -1.617  1.00  0.00     0.000 G0
ENDBRANCH   8  10
BRANCH   8  13
ATOM     13  O   UNL     1       4.158   0.409   0.399  1.00  0.00    -0.390 OA
ATOM     14  H   UNL     1       4.806   0.312  -0.320  1.00  0.00     0.211 HD
ENDBRANCH   8  13
ENDBRANCH   7   8
ENDBRANCH   6   7
BRANCH   1  15
ATOM     15  C   UNL     1      -0.644  -0.841   0.207  1.00  0.00     0.035 A 
ATOM     16  C   UNL     1      -1.513  -1.567   1.056  1.00  0.00     0.170 A 
ATOM     17  C   UNL     1       0.159  -1.583  -0.690  1.00  0.00    -0.032 A 
ATOM     18  C   UNL     1      -1.577  -2.967   1.029  1.00  0.00     0.203 A 
ATOM     19  C   UNL     1       0.041  -2.995  -0.739  1.00  0.00     0.055 A 
ATOM     20  C   UNL     1      -0.817  -3.693   0.111  1.00  0.00     0.164 A 
BRANCH  16  21
ATOM     21  O   UNL     1      -2.339  -0.918   1.944  1.00  0.00    -0.504 OA
ATOM     22  H   UNL     1      -2.747  -0.180   1.453  1.00  0.00     0.293 HD
ENDBRANCH  16  21
BRANCH  17  23
ATOM     23  C   UNL     1       1.172  -0.936  -1.617  1.00  0.00     0.042 CG0
ATOM     24  G   UNL     1       2.606  -0.782  -1.051  1.00  0.00     0.000 G0
ENDBRANCH  17  23
BRANCH  18  25
ATOM     25  O   UNL     1      -2.465  -3.632   1.844  1.00  0.00    -0.490 OA
ATOM     26  C   UNL     1      -1.877  -3.840   3.127  1.00  0.00     0.278 C 
ENDBRANCH  18  25
BRANCH  20  27
ATOM     27  O   UNL     1      -0.967  -5.055   0.135  1.00  0.00    -0.493 OA
ATOM     28  C   UNL     1      -0.279  -5.810  -0.852  1.00  0.00     0.278 C 
ENDBRANCH  20  27
ENDBRANCH   1  15
BRANCH   4  29
ATOM     29  O   UNL     1      -0.758   4.843   0.676  1.00  0.00    -0.493 OA
ATOM     30  C   UNL     1       0.140   5.449   1.599  1.00  0.00     0.278 C 
ENDBRANCH   4  29
BRANCH   2  31
ATOM     31  O   UNL     1      -2.894   0.731  -0.455  1.00  0.00    -0.492 OA
ATOM     32  C   UNL     1      -3.007   0.676  -1.878  1.00  0.00     0.278 C 
ENDBRANCH   2  31
BRANCH   3  33
ATOM     33  O   UNL     1      -2.981   3.409  -0.282  1.00  0.00    -0.490 OA
ATOM     34  C   UNL     1      -2.871   4.563  -1.110  1.00  0.00     0.278 C 
ENDBRANCH   3  33
TORSDOF 7
