REMARK SMILES Cc1cccc2c3c(ccc12)C1=C(C(=O)C3=O)[C@@H](C)CO1
REMARK SMILES IDX 19 1 18 2 20 3 21 4 12 5 13 6 14 7 15 8 16 9 17 10 7 11 8 12
REMARK SMILES IDX 9 13 10 14 11 15 2 16 3 17 4 18 5 19 6 20 1 21
REMARK H PARENT
ROOT
ATOM      1  C   UNL     1       5.032  -0.778   0.384  1.00  0.00     0.017 C 
ATOM      2  C   UNL     1       4.005   0.314   0.646  1.00  0.00     0.062 C 
ATOM      3  C   UNL     1       3.924   1.317  -0.519  1.00  0.00     0.238 C 
ATOM      4  O   UNL     1       2.531   1.627  -0.776  1.00  0.00    -0.492 OA
ATOM      5  C   UNL     1       1.852   0.621  -0.105  1.00  0.00     0.134 C 
ATOM      6  C   UNL     1       2.601  -0.137   0.680  1.00  0.00     0.052 C 
ATOM      7  C   UNL     1       1.998  -1.171   1.507  1.00  0.00     0.233 C 
ATOM      8  O   UNL     1       2.606  -1.711   2.418  1.00  0.00    -0.285 OA
ATOM      9  C   UNL     1       0.559  -1.549   1.162  1.00  0.00     0.234 C 
ATOM     10  O   UNL     1       0.181  -2.680   1.431  1.00  0.00    -0.285 OA
ATOM     11  C   UNL     1      -0.289  -0.535   0.449  1.00  0.00     0.045 A 
ATOM     12  C   UNL     1       0.399   0.511  -0.203  1.00  0.00     0.029 A 
ATOM     13  C   UNL     1      -0.325   1.445  -0.938  1.00  0.00     0.013 A 
ATOM     14  C   UNL     1      -1.713   1.353  -1.019  1.00  0.00     0.010 A 
ATOM     15  C   UNL     1      -2.437   0.339  -0.363  1.00  0.00    -0.015 A 
ATOM     16  C   UNL     1      -3.858   0.273  -0.445  1.00  0.00    -0.043 A 
ATOM     17  C   UNL     1      -4.556  -0.735   0.231  1.00  0.00     0.004 A 
ATOM     18  C   UNL     1      -3.872  -1.672   0.985  1.00  0.00     0.001 A 
ATOM     19  C   UNL     1      -2.482  -1.617   1.067  1.00  0.00     0.009 A 
ATOM     20  C   UNL     1      -1.718  -0.629   0.396  1.00  0.00    -0.006 A 
ATOM     21  C   UNL     1      -4.662   1.270  -1.244  1.00  0.00     0.045 C 
ENDROOT
TORSDOF 0
