REMARK SMILES O=c1cccc2n1C[C@H]1C[C@@H]2CN2CC[C@H](O)C[C@H]12
REMARK SMILES IDX 17 1 16 3 15 4 14 5 13 6 18 7 12 8 19 9 11 10 9 11 10 12
REMARK SMILES IDX 6 13 8 14 7 15 5 16 2 17 4 18 3 19 1 20
REMARK H PARENT 17 2
ROOT
ATOM      1  O   UNL     1      -4.487  -1.658  -0.100  1.00  0.00    -0.393 OA
ATOM      2  H   UNL     1      -5.197  -1.360  -0.694  1.00  0.00     0.210 HD
ENDROOT
BRANCH   1   3
ATOM      3  C   UNL     1      -3.313  -0.919  -0.425  1.00  0.00     0.117 C 
ATOM      4  C   UNL     1      -3.583   0.575  -0.309  1.00  0.00     0.047 C 
ATOM      5  C   UNL     1      -2.302   1.371  -0.534  1.00  0.00     0.087 C 
ATOM      6  N   UNL     1      -1.241   0.955   0.393  1.00  0.00    -0.299 NA
ATOM      7  C   UNL     1      -2.193  -1.327   0.523  1.00  0.00     0.051 C 
ATOM      8  C   UNL     1      -0.033   1.782   0.199  1.00  0.00     0.094 C 
ATOM      9  C   UNL     1      -0.927  -0.484   0.290  1.00  0.00     0.064 C 
ATOM     10  C   UNL     1       1.205   1.281   0.991  1.00  0.00     0.051 C 
ATOM     11  C   UNL     1       0.169  -0.908   1.319  1.00  0.00     0.027 C 
ATOM     12  C   UNL     1       0.766   0.288   2.061  1.00  0.00     0.018 C 
ATOM     13  C   UNL     1       2.231   0.650   0.058  1.00  0.00     0.025 C 
ATOM     14  C   UNL     1       1.321  -1.615   0.595  1.00  0.00     0.131 C 
ATOM     15  N   UNL     1       2.217  -0.733  -0.158  1.00  0.00    -0.312 N 
ATOM     16  C   UNL     1       3.150   1.412  -0.564  1.00  0.00     0.022 C 
ATOM     17  C   UNL     1       3.126  -1.364  -1.013  1.00  0.00     0.250 C 
ATOM     18  C   UNL     1       4.105   0.831  -1.469  1.00  0.00     0.007 C 
ATOM     19  C   UNL     1       4.105  -0.485  -1.702  1.00  0.00     0.072 C 
ATOM     20  O   UNL     1       3.168  -2.575  -1.218  1.00  0.00    -0.269 OA
ENDBRANCH   1   3
TORSDOF 1
