REMARK SMILES COc1cc([C@H]2Oc3cc(-c4oc5cc(O)cc(O)c5c(=O)c4O)ccc3O[C@@H]2CO)ccc1O
REMARK SMILES IDX 6 1 29 2 28 3 27 4 8 5 7 6 9 7 10 8 25 9 26 10 5 11 3 12
REMARK SMILES IDX 34 13 4 14 33 15 32 16 2 17 1 18 35 19 30 21 31 22 11 24
REMARK SMILES IDX 23 25 12 26 21 27 13 28 22 29 20 30 14 31 18 32 15 33 17 34
REMARK SMILES IDX 24 35 19 37 16 39
REMARK H PARENT 35 20 31 23 24 36 19 38 16 40
ROOT
ATOM      1  C   UNL     1      -2.636  -0.574  -0.528  1.00  0.00     0.247 C 
ATOM      2  C   UNL     1      -2.510  -2.107  -0.589  1.00  0.00     0.244 C 
ATOM      3  O   UNL     1      -1.360  -2.477  -1.388  1.00  0.00    -0.480 OA
ATOM      4  C   UNL     1      -0.254  -1.737  -1.065  1.00  0.00     0.162 A 
ATOM      5  C   UNL     1      -0.312  -0.552  -0.331  1.00  0.00     0.163 A 
ATOM      6  O   UNL     1      -1.483  -0.006   0.122  1.00  0.00    -0.478 OA
ATOM      7  C   UNL     1       0.860   0.134  -0.014  1.00  0.00     0.062 A 
ATOM      8  C   UNL     1       2.104  -0.338  -0.457  1.00  0.00     0.025 A 
ATOM      9  C   UNL     1       2.146  -1.522  -1.210  1.00  0.00     0.016 A 
ATOM     10  C   UNL     1       0.972  -2.215  -1.517  1.00  0.00     0.051 A 
ENDROOT
BRANCH   1  11
ATOM     11  C   UNL     1      -3.854  -0.091   0.237  1.00  0.00     0.000 A 
ATOM     12  C   UNL     1      -6.005   1.053   0.261  1.00  0.00     0.160 A 
ATOM     13  C   UNL     1      -6.111   0.771   1.627  1.00  0.00     0.157 A 
ATOM     14  C   UNL     1      -4.872   0.619  -0.430  1.00  0.00     0.058 A 
ATOM     15  C   UNL     1      -5.119   0.079   2.307  1.00  0.00     0.050 A 
ATOM     16  C   UNL     1      -3.989  -0.350   1.613  1.00  0.00     0.012 A 
BRANCH  12  17
ATOM     17  O   UNL     1      -7.063   1.747  -0.269  1.00  0.00    -0.493 OA
ATOM     18  C   UNL     1      -6.975   2.094  -1.646  1.00  0.00     0.278 C 
ENDBRANCH  12  17
BRANCH  13  19
ATOM     19  O   UNL     1      -7.211   1.180   2.332  1.00  0.00    -0.504 OA
ATOM     20  H   UNL     1      -7.770   1.643   1.679  1.00  0.00     0.293 HD
ENDBRANCH  13  19
ENDBRANCH   1  11
BRANCH   2  21
ATOM     21  C   UNL     1      -3.719  -2.770  -1.256  1.00  0.00     0.205 C 
BRANCH  21  22
ATOM     22  O   UNL     1      -3.546  -4.188  -1.295  1.00  0.00    -0.392 OA
ATOM     23  H   UNL     1      -2.650  -4.345  -1.650  1.00  0.00     0.210 HD
ENDBRANCH  21  22
ENDBRANCH   2  21
BRANCH   8  24
ATOM     24  C   UNL     1       3.361   0.361  -0.119  1.00  0.00     0.180 C 
ATOM     25  C   UNL     1       3.543   1.680  -0.318  1.00  0.00     0.208 C 
ATOM     26  O   UNL     1       4.330  -0.488   0.400  1.00  0.00    -0.452 OA
ATOM     27  C   UNL     1       4.848   2.276   0.048  1.00  0.00     0.238 C 
ATOM     28  C   UNL     1       5.546   0.037   0.761  1.00  0.00     0.146 A 
ATOM     29  O   UNL     1       5.055   3.475  -0.122  1.00  0.00    -0.285 OA
ATOM     30  C   UNL     1       5.864   1.385   0.613  1.00  0.00     0.111 A 
ATOM     31  C   UNL     1       6.482  -0.851   1.296  1.00  0.00     0.094 A 
ATOM     32  C   UNL     1       7.123   1.855   0.997  1.00  0.00     0.134 A 
ATOM     33  C   UNL     1       7.733  -0.371   1.676  1.00  0.00     0.123 A 
ATOM     34  C   UNL     1       8.060   0.974   1.530  1.00  0.00     0.093 A 
BRANCH  25  35
ATOM     35  O   UNL     1       2.593   2.524  -0.862  1.00  0.00    -0.502 OA
ATOM     36  H   UNL     1       3.017   3.407  -0.893  1.00  0.00     0.293 HD
ENDBRANCH  25  35
BRANCH  32  37
ATOM     37  O   UNL     1       7.499   3.164   0.876  1.00  0.00    -0.507 OA
ATOM     38  H   UNL     1       6.752   3.672   0.489  1.00  0.00     0.293 HD
ENDBRANCH  32  37
BRANCH  33  39
ATOM     39  O   UNL     1       8.679  -1.199   2.203  1.00  0.00    -0.508 OA
ATOM     40  H   UNL     1       8.321  -2.100   2.264  1.00  0.00     0.293 HD
ENDBRANCH  33  39
ENDBRANCH   8  24
TORSDOF 9
