REMARK SMILES CC1COC2=C1C(=O)c1ccc3c(c1C2=O)CCCC3(C)C
REMARK SMILES IDX 1 1 2 2 3 3 4 4 5 5 6 6 7 7 8 8 9 9 14 10 15 11 16 12 13 13
REMARK SMILES IDX 12 14 11 15 10 16 20 17 19 18 18 19 17 20 21 21 22 22
REMARK H PARENT
ROOT
ATOM      1  C   UNL     1       5.583   0.760   0.162  1.00  0.00     0.017 C 
ATOM      2  C   UNL     1       4.711  -0.108  -0.736  1.00  0.00     0.062 C 
ATOM      3  C   UNL     1       4.963  -1.604  -0.487  1.00  0.00     0.238 C 
ATOM      4  O   UNL     1       3.696  -2.296  -0.474  1.00  0.00    -0.488 OA
ATOM      5  C   UNL     1       2.766  -1.270  -0.344  1.00  0.00     0.174 C 
ATOM      6  C   UNL     1       3.256  -0.047  -0.475  1.00  0.00     0.052 C 
ATOM      7  C   UNL     1       2.415   1.139  -0.414  1.00  0.00     0.194 C 
ATOM      8  O   UNL     1       2.890   2.259  -0.552  1.00  0.00    -0.289 OA
ATOM      9  C   UNL     1       0.964   0.923  -0.198  1.00  0.00     0.034 A 
ATOM     10  C   UNL     1       0.406  -0.363  -0.079  1.00  0.00     0.040 A 
ATOM     11  C   UNL     1       1.333  -1.545  -0.097  1.00  0.00     0.229 C 
ATOM     12  O   UNL     1       0.961  -2.692   0.108  1.00  0.00    -0.285 OA
ATOM     13  C   UNL     1      -1.006  -0.506   0.077  1.00  0.00    -0.032 A 
ATOM     14  C   UNL     1      -1.819   0.655   0.202  1.00  0.00    -0.038 A 
ATOM     15  C   UNL     1      -1.217   1.920   0.074  1.00  0.00     0.005 A 
ATOM     16  C   UNL     1       0.151   2.055  -0.131  1.00  0.00     0.013 A 
ATOM     17  C   UNL     1      -3.339   0.575   0.436  1.00  0.00    -0.010 C 
ATOM     18  C   UNL     1      -3.780  -0.847   0.853  1.00  0.00     0.011 C 
ATOM     19  C   UNL     1      -3.151  -1.909  -0.027  1.00  0.00     0.006 C 
ATOM     20  C   UNL     1      -1.637  -1.885   0.134  1.00  0.00     0.036 C 
ATOM     21  C   UNL     1      -3.790   1.522   1.574  1.00  0.00     0.016 C 
ATOM     22  C   UNL     1      -4.067   0.992  -0.861  1.00  0.00     0.016 C 
ENDROOT
TORSDOF 0
