REMARK SMILES CC(C)C1=Cc2ccc3c(c2C(=O)C1=O)CCCC3(C)C
REMARK SMILES IDX 4 1 5 2 6 3 11 4 10 5 9 6 8 7 7 8 19 9 18 10 17 11 16 12
REMARK SMILES IDX 20 13 21 14 12 15 13 16 14 17 15 18 2 19 1 20 3 21
REMARK H PARENT
ROOT
ATOM      1  C   UNL     1       3.162  -0.150   0.256  1.00  0.00     0.007 C 
ATOM      2  C   UNL     1       2.247   0.070   1.214  1.00  0.00     0.017 C 
ATOM      3  C   UNL     1       0.811   0.203   0.948  1.00  0.00    -0.014 A 
ATOM      4  C   UNL     1       0.254  -0.092  -0.305  1.00  0.00     0.037 A 
ATOM      5  C   UNL     1      -1.139   0.057  -0.545  1.00  0.00    -0.032 A 
ATOM      6  C   UNL     1      -1.985   0.449   0.522  1.00  0.00    -0.038 A 
ATOM      7  C   UNL     1      -1.400   0.742   1.769  1.00  0.00     0.005 A 
ATOM      8  C   UNL     1      -0.027   0.624   1.979  1.00  0.00     0.009 A 
ATOM      9  C   UNL     1      -3.506   0.602   0.349  1.00  0.00    -0.010 C 
ATOM     10  C   UNL     1      -4.001  -0.032  -0.973  1.00  0.00     0.011 C 
ATOM     11  C   UNL     1      -3.109   0.335  -2.144  1.00  0.00     0.006 C 
ATOM     12  C   UNL     1      -1.711  -0.222  -1.920  1.00  0.00     0.036 C 
ATOM     13  C   UNL     1      -3.861   2.105   0.371  1.00  0.00     0.016 C 
ATOM     14  C   UNL     1      -4.281  -0.099   1.490  1.00  0.00     0.016 C 
ATOM     15  C   UNL     1       1.198  -0.598  -1.335  1.00  0.00     0.234 C 
ATOM     16  O   UNL     1       0.843  -1.268  -2.295  1.00  0.00    -0.285 OA
ATOM     17  C   UNL     1       2.677  -0.301  -1.143  1.00  0.00     0.229 C 
ATOM     18  O   UNL     1       3.415  -0.206  -2.112  1.00  0.00    -0.285 OA
ENDROOT
BRANCH   1  19
ATOM     19  C   UNL     1       4.646  -0.232   0.549  1.00  0.00     0.017 C 
ATOM     20  C   UNL     1       5.257  -1.563   0.100  1.00  0.00     0.012 C 
ATOM     21  C   UNL     1       5.423   0.955  -0.025  1.00  0.00     0.012 C 
ENDBRANCH   1  19
TORSDOF 1
