REMARK SMILES COc1c2c(cc3c1-c1c(cc4c(c1OC)OCO4)C[C@H](C)[C@H](C)C3)OCO2
REMARK SMILES IDX 9 1 14 2 13 3 12 4 11 5 10 6 19 7 18 8 17 9 20 10 21 11
REMARK SMILES IDX 22 12 23 13 24 14 8 16 3 17 7 18 4 19 6 20 5 21 28 22 26 23
REMARK SMILES IDX 27 24 2 25 1 26 25 27 15 29 16 30
REMARK H PARENT
REMARK Flexibility Score:   11.900
ROOT
ATOM      1  C   UNL     1      -0.357   0.698   0.161  1.00  0.00     0.035 A 
ATOM      2  C   UNL     1      -1.459   1.058   0.985  1.00  0.00     0.173 A 
ATOM      3  C   UNL     1      -1.459   2.326   1.551  1.00  0.00     0.208 A 
ATOM      4  C   UNL     1      -0.425   3.212   1.330  1.00  0.00     0.170 A 
ATOM      5  C   UNL     1       0.670   2.895   0.558  1.00  0.00     0.055 A 
ATOM      6  C   UNL     1       0.714   1.624  -0.031  1.00  0.00    -0.032 A 
ATOM      7  O   UNL     1      -0.593   4.400   1.973  1.00  0.00    -0.453 OA
ATOM      8  C   UNL     1      -1.856   4.180   2.620  1.00  0.00     0.468 C 
ATOM      9  O   UNL     1      -2.401   2.872   2.374  1.00  0.00    -0.450 OA
ENDROOT
BRANCH   6  10
ATOM     10  C   UNL     1       1.968   1.194  -0.759  1.00  0.00     0.040 C 
BRANCH  10  11
ATOM     11  C   UNL     1       2.981   0.497   0.183  1.00  0.00    -0.007 C 
ATOM     12  C   UNL     1       3.994  -0.286  -0.659  1.00  0.00     0.008 C 
BRANCH  11  13
ATOM     13  C   UNL     1       2.345  -0.346   1.332  1.00  0.00    -0.007 CG0
ATOM     14  C   UNL     1       3.411  -0.726   2.378  1.00  0.00     0.008 C 
ATOM     15  G   UNL     1       1.586  -1.626   0.916  1.00  0.00     0.000 G0
ENDBRANCH  11  13
ENDBRANCH  10  11
ENDBRANCH   6  10
BRANCH   1  16
ATOM     16  C   UNL     1      -0.334  -0.604  -0.554  1.00  0.00     0.035 A 
ATOM     17  C   UNL     1      -1.238  -0.790  -1.641  1.00  0.00     0.173 A 
ATOM     18  C   UNL     1       0.584  -1.649  -0.226  1.00  0.00    -0.032 A 
ATOM     19  C   UNL     1      -1.216  -1.982  -2.346  1.00  0.00     0.208 A 
ATOM     20  C   UNL     1       0.541  -2.856  -0.962  1.00  0.00     0.055 A 
ATOM     21  C   UNL     1      -0.351  -2.987  -2.003  1.00  0.00     0.170 A 
ATOM     22  O   UNL     1      -1.975  -2.318  -3.427  1.00  0.00    -0.450 OA
ATOM     23  O   UNL     1      -0.465  -4.082  -2.802  1.00  0.00    -0.453 OA
ATOM     24  C   UNL     1      -1.494  -3.645  -3.709  1.00  0.00     0.468 C 
BRANCH  17  25
ATOM     25  O   UNL     1      -2.039   0.267  -2.002  1.00  0.00    -0.492 OA
ATOM     26  C   UNL     1      -3.404  -0.090  -2.196  1.00  0.00     0.278 C 
ENDBRANCH  17  25
BRANCH  18  27
ATOM     27  C   UNL     1       1.586  -1.626   0.916  1.00  0.00     0.040 CG0
ATOM     28  G   UNL     1       2.345  -0.346   1.332  1.00  0.00     0.000 G0
ENDBRANCH  18  27
ENDBRANCH   1  16
BRANCH   2  29
ATOM     29  O   UNL     1      -2.415   0.090   1.163  1.00  0.00    -0.492 OA
ATOM     30  C   UNL     1      -3.627   0.461   1.801  1.00  0.00     0.278 C 
ENDBRANCH   2  29
TORSDOF 2
