REMARK SMILES CN1C[C@@H]2C[C@H](C1)c1cccc(=O)n1C2
REMARK SMILES IDX 1 1 2 2 3 3 4 4 5 5 6 6 7 7 8 8 9 9 10 10 11 11 12 12 13 13
REMARK SMILES IDX 14 14 15 15
REMARK H PARENT
ROOT
ATOM      1  C   UNL     1       3.396   0.346  -0.747  1.00  0.00     0.105 C 
ATOM      2  N   UNL     1       2.016   0.815  -0.740  1.00  0.00    -0.305 NA
ATOM      3  C   UNL     1       1.512   1.100   0.604  1.00  0.00     0.089 C 
ATOM      4  C   UNL     1       0.957  -0.109   1.400  1.00  0.00     0.024 C 
ATOM      5  C   UNL     1       0.893  -1.394   0.576  1.00  0.00     0.018 C 
ATOM      6  C   UNL     1       0.207  -1.021  -0.730  1.00  0.00     0.051 C 
ATOM      7  C   UNL     1       1.100  -0.029  -1.527  1.00  0.00     0.094 C 
ATOM      8  C   UNL     1      -1.185  -0.455  -0.463  1.00  0.00     0.025 C 
ATOM      9  C   UNL     1      -2.150  -0.547  -1.396  1.00  0.00     0.022 C 
ATOM     10  C   UNL     1      -3.464  -0.009  -1.161  1.00  0.00     0.007 C 
ATOM     11  C   UNL     1      -3.758   0.579   0.002  1.00  0.00     0.072 C 
ATOM     12  C   UNL     1      -2.732   0.672   1.071  1.00  0.00     0.250 C 
ATOM     13  O   UNL     1      -3.038   1.182   2.147  1.00  0.00    -0.269 OA
ATOM     14  N   UNL     1      -1.469   0.151   0.769  1.00  0.00    -0.312 N 
ATOM     15  C   UNL     1      -0.478   0.192   1.848  1.00  0.00     0.130 C 
ENDROOT
TORSDOF 0
