REMARK SMILES COc1cc([C@H]2Oc3ccc([C@@H]4CC(=O)c5c(O)cc(O)cc5O4)cc3O[C@@H]2CO)ccc1O
REMARK SMILES IDX 6 1 28 2 27 3 26 4 8 5 7 6 9 7 10 8 11 9 25 10 5 11 3 12
REMARK SMILES IDX 33 13 4 14 32 15 31 16 2 17 1 18 34 19 29 21 30 22 12 24
REMARK SMILES IDX 13 25 24 26 14 27 23 28 15 29 16 30 22 31 17 32 20 33 19 34
REMARK SMILES IDX 18 35 21 37
REMARK H PARENT 34 20 30 23 18 36 21 38
ROOT
ATOM      1  C   UNL     1      -2.829   1.095   0.228  1.00  0.00     0.247 C 
ATOM      2  C   UNL     1      -2.436   1.347  -1.240  1.00  0.00     0.244 C 
ATOM      3  O   UNL     1      -1.018   1.608  -1.342  1.00  0.00    -0.480 OA
ATOM      4  C   UNL     1      -0.276   0.737  -0.591  1.00  0.00     0.162 A 
ATOM      5  C   UNL     1      -0.823  -0.083   0.395  1.00  0.00     0.162 A 
ATOM      6  O   UNL     1      -2.150  -0.078   0.725  1.00  0.00    -0.478 OA
ATOM      7  C   UNL     1      -0.008  -0.973   1.090  1.00  0.00     0.051 A 
ATOM      8  C   UNL     1       1.362  -1.021   0.822  1.00  0.00     0.011 A 
ATOM      9  C   UNL     1       1.933  -0.175  -0.144  1.00  0.00    -0.003 A 
ATOM     10  C   UNL     1       1.094   0.702  -0.850  1.00  0.00     0.058 A 
ENDROOT
BRANCH   1  11
ATOM     11  C   UNL     1      -4.318   0.850   0.408  1.00  0.00     0.000 A 
ATOM     12  C   UNL     1      -6.291  -0.563   0.122  1.00  0.00     0.160 A 
ATOM     13  C   UNL     1      -7.073   0.450   0.693  1.00  0.00     0.157 A 
ATOM     14  C   UNL     1      -4.916  -0.352  -0.020  1.00  0.00     0.058 A 
ATOM     15  C   UNL     1      -6.499   1.646   1.125  1.00  0.00     0.050 A 
ATOM     16  C   UNL     1      -5.125   1.843   0.982  1.00  0.00     0.012 A 
BRANCH  12  17
ATOM     17  O   UNL     1      -6.956  -1.695  -0.269  1.00  0.00    -0.493 OA
ATOM     18  C   UNL     1      -6.169  -2.804  -0.678  1.00  0.00     0.278 C 
ENDBRANCH  12  17
BRANCH  13  19
ATOM     19  O   UNL     1      -8.422   0.258   0.829  1.00  0.00    -0.504 OA
ATOM     20  H   UNL     1      -8.806   1.022   1.285  1.00  0.00     0.293 HD
ENDBRANCH  13  19
ENDBRANCH   1  11
BRANCH   2  21
ATOM     21  C   UNL     1      -3.159   2.547  -1.869  1.00  0.00     0.205 C 
BRANCH  21  22
ATOM     22  O   UNL     1      -3.072   3.705  -1.039  1.00  0.00    -0.392 OA
ATOM     23  H   UNL     1      -3.417   4.452  -1.559  1.00  0.00     0.210 HD
ENDBRANCH  21  22
ENDBRANCH   2  21
BRANCH   9  24
ATOM     24  C   UNL     1       3.416  -0.223  -0.462  1.00  0.00     0.211 C 
ATOM     25  C   UNL     1       3.711  -1.341  -1.452  1.00  0.00     0.131 C 
ATOM     26  O   UNL     1       4.150  -0.412   0.759  1.00  0.00    -0.484 OA
ATOM     27  C   UNL     1       5.184  -1.333  -1.741  1.00  0.00     0.174 C 
ATOM     28  C   UNL     1       5.503  -0.507   0.561  1.00  0.00     0.138 A 
ATOM     29  O   UNL     1       5.660  -1.695  -2.815  1.00  0.00    -0.294 OA
ATOM     30  C   UNL     1       6.078  -0.927  -0.640  1.00  0.00     0.102 A 
ATOM     31  C   UNL     1       6.317  -0.185   1.645  1.00  0.00     0.093 A 
ATOM     32  C   UNL     1       7.470  -0.992  -0.764  1.00  0.00     0.133 A 
ATOM     33  C   UNL     1       7.702  -0.255   1.510  1.00  0.00     0.123 A 
ATOM     34  C   UNL     1       8.288  -0.651   0.311  1.00  0.00     0.093 A 
BRANCH  32  35
ATOM     35  O   UNL     1       8.099  -1.392  -1.913  1.00  0.00    -0.507 OA
ATOM     36  H   UNL     1       7.409  -1.620  -2.577  1.00  0.00     0.293 HD
ENDBRANCH  32  35
BRANCH  33  37
ATOM     37  O   UNL     1       8.461   0.078   2.592  1.00  0.00    -0.508 OA
ATOM     38  H   UNL     1       9.400  -0.020   2.360  1.00  0.00     0.293 HD
ENDBRANCH  33  37
ENDBRANCH   9  24
TORSDOF 8
