REMARK SMILES COc1cc2c(c(OC)c1OC)-c1c(cc3c(c1O)OCO3)C[C@H](C)[C@@H](C)C2
REMARK SMILES IDX 14 1 15 2 16 3 17 4 18 5 13 6 20 7 21 8 22 9 23 10 24 11
REMARK SMILES IDX 25 12 26 13 27 14 6 16 7 17 5 18 10 19 4 20 3 21 8 22 9 23
REMARK SMILES IDX 28 24 11 26 12 27 2 28 1 29 19 30
REMARK H PARENT 19 31
REMARK Flexibility Score:    8.900
ROOT
ATOM      1  C   UNL     1      -1.361   1.840   0.244  1.00  0.00    -0.032 A 
ATOM      2  C   UNL     1      -1.953   3.054   0.683  1.00  0.00     0.055 A 
ATOM      3  C   UNL     1      -1.283   3.862   1.573  1.00  0.00     0.170 A 
ATOM      4  C   UNL     1      -0.040   3.536   2.035  1.00  0.00     0.207 A 
ATOM      5  C   UNL     1       0.592   2.381   1.618  1.00  0.00     0.170 A 
ATOM      6  C   UNL     1      -0.056   1.492   0.713  1.00  0.00     0.035 A 
ATOM      7  O   UNL     1       0.450   4.472   2.894  1.00  0.00    -0.450 OA
ATOM      8  C   UNL     1      -0.637   5.414   2.924  1.00  0.00     0.468 C 
ATOM      9  O   UNL     1      -1.742   5.038   2.076  1.00  0.00    -0.453 OA
ENDROOT
BRANCH   1  10
ATOM     10  C   UNL     1      -2.192   1.080  -0.777  1.00  0.00     0.040 C 
BRANCH  10  11
ATOM     11  C   UNL     1      -2.157  -0.454  -0.969  1.00  0.00    -0.007 C 
ATOM     12  C   UNL     1      -3.191  -0.801  -2.060  1.00  0.00     0.008 C 
BRANCH  11  13
ATOM     13  C   UNL     1      -2.409  -1.267   0.342  1.00  0.00    -0.007 CG0
ATOM     14  C   UNL     1      -2.615  -2.766   0.061  1.00  0.00     0.008 C 
ATOM     15  G   UNL     1      -1.301  -1.098   1.413  1.00  0.00     0.000 G0
ENDBRANCH  11  13
ENDBRANCH  10  11
ENDBRANCH   1  10
BRANCH   6  16
ATOM     16  C   UNL     1       0.611   0.211   0.365  1.00  0.00     0.035 A 
ATOM     17  C   UNL     1       1.829   0.181  -0.348  1.00  0.00     0.172 A 
ATOM     18  C   UNL     1       0.081  -1.024   0.799  1.00  0.00    -0.032 A 
ATOM     19  C   UNL     1       2.530  -1.017  -0.583  1.00  0.00     0.203 A 
ATOM     20  C   UNL     1       0.792  -2.220   0.576  1.00  0.00     0.055 A 
ATOM     21  C   UNL     1       2.024  -2.226  -0.086  1.00  0.00     0.164 A 
BRANCH  17  22
ATOM     22  O   UNL     1       2.401   1.380  -0.725  1.00  0.00    -0.492 OA
ATOM     23  C   UNL     1       2.066   1.676  -2.081  1.00  0.00     0.278 C 
ENDBRANCH  17  22
BRANCH  18  24
ATOM     24  C   UNL     1      -1.301  -1.098   1.413  1.00  0.00     0.040 CG0
ATOM     25  G   UNL     1      -2.409  -1.267   0.342  1.00  0.00     0.000 G0
ENDBRANCH  18  24
BRANCH  19  26
ATOM     26  O   UNL     1       3.743  -0.899  -1.220  1.00  0.00    -0.490 OA
ATOM     27  C   UNL     1       3.923  -1.805  -2.305  1.00  0.00     0.278 C 
ENDBRANCH  19  26
BRANCH  21  28
ATOM     28  O   UNL     1       2.770  -3.357  -0.287  1.00  0.00    -0.493 OA
ATOM     29  C   UNL     1       2.479  -4.484   0.531  1.00  0.00     0.278 C 
ENDBRANCH  21  28
ENDBRANCH   6  16
BRANCH   5  30
ATOM     30  O   UNL     1       1.844   2.143   2.123  1.00  0.00    -0.504 OA
ATOM     31  H   UNL     1       2.366   1.715   1.420  1.00  0.00     0.293 HD
ENDBRANCH   5  30
TORSDOF 4
