REMARK SMILES C=C(C)[C@H](CC=C(C)C)Cc1c(O)cc(O)c2c(=O)c(O)c(-c3ccc(O)cc3O)oc12
REMARK SMILES IDX 10 1 4 2 5 3 6 4 7 5 8 6 9 7 2 8 1 9 3 10 11 11 32 12 12 13
REMARK SMILES IDX 17 14 31 15 14 16 15 17 18 18 22 19 19 20 20 21 13 22 16 24
REMARK SMILES IDX 23 26 29 27 24 28 28 29 25 30 26 31 30 32 27 34 21 36
REMARK H PARENT 13 23 16 25 30 33 27 35 21 37
ROOT
ATOM      1  C   UNL     1       1.338  -0.665   0.931  1.00  0.00     0.051 C 
ENDROOT
BRANCH   1   2
ATOM      2  C   UNL     1       0.959  -1.181  -0.488  1.00  0.00     0.022 C 
BRANCH   2   3
ATOM      3  C   UNL     1       1.773  -0.486  -1.622  1.00  0.00     0.035 C 
BRANCH   3   4
ATOM      4  C   UNL     1       3.275  -0.485  -1.474  1.00  0.00    -0.028 C 
ATOM      5  C   UNL     1       4.130   0.460  -1.914  1.00  0.00    -0.080 C 
ATOM      6  C   UNL     1       3.734   1.687  -2.687  1.00  0.00     0.039 C 
ATOM      7  C   UNL     1       5.608   0.339  -1.649  1.00  0.00     0.039 C 
ENDBRANCH   3   4
ENDBRANCH   2   3
BRANCH   2   8
ATOM      8  C   UNL     1       0.910  -2.720  -0.532  1.00  0.00    -0.077 C 
ATOM      9  C   UNL     1       1.697  -3.505  -1.289  1.00  0.00     0.008 C 
ATOM     10  C   UNL     1      -0.176  -3.357   0.305  1.00  0.00     0.039 C 
ENDBRANCH   2   8
ENDBRANCH   1   2
BRANCH   1  11
ATOM     11  C   UNL     1       1.087   0.816   1.157  1.00  0.00     0.038 A 
ATOM     12  C   UNL     1      -0.227   1.320   1.209  1.00  0.00     0.149 A 
ATOM     13  C   UNL     1       2.147   1.719   1.333  1.00  0.00     0.126 A 
ATOM     14  C   UNL     1      -0.459   2.682   1.398  1.00  0.00     0.111 A 
ATOM     15  O   UNL     1      -1.257   0.419   1.077  1.00  0.00    -0.451 OA
ATOM     16  C   UNL     1       1.919   3.083   1.517  1.00  0.00     0.093 A 
ATOM     17  C   UNL     1       0.615   3.563   1.546  1.00  0.00     0.134 A 
ATOM     18  C   UNL     1      -1.845   3.157   1.441  1.00  0.00     0.238 C 
ATOM     19  C   UNL     1      -2.566   0.867   1.124  1.00  0.00     0.184 C 
ATOM     20  O   UNL     1      -2.121   4.345   1.595  1.00  0.00    -0.285 OA
ATOM     21  C   UNL     1      -2.920   2.152   1.289  1.00  0.00     0.208 C 
BRANCH  13  22
ATOM     22  O   UNL     1       3.428   1.246   1.340  1.00  0.00    -0.507 OA
ATOM     23  H   UNL     1       4.046   1.995   1.325  1.00  0.00     0.293 HD
ENDBRANCH  13  22
BRANCH  17  24
ATOM     24  O   UNL     1       0.459   4.910   1.731  1.00  0.00    -0.507 OA
ATOM     25  H   UNL     1      -0.503   5.113   1.743  1.00  0.00     0.293 HD
ENDBRANCH  17  24
BRANCH  19  26
ATOM     26  C   UNL     1      -3.552  -0.221   0.981  1.00  0.00     0.063 A 
ATOM     27  C   UNL     1      -3.586  -1.301   1.878  1.00  0.00     0.130 A 
ATOM     28  C   UNL     1      -4.462  -0.210  -0.089  1.00  0.00     0.020 A 
ATOM     29  C   UNL     1      -4.502  -2.341   1.716  1.00  0.00     0.093 A 
ATOM     30  C   UNL     1      -5.383  -1.248  -0.256  1.00  0.00     0.047 A 
ATOM     31  C   UNL     1      -5.392  -2.304   0.649  1.00  0.00     0.119 A 
BRANCH  27  32
ATOM     32  O   UNL     1      -2.713  -1.330   2.935  1.00  0.00    -0.507 OA
ATOM     33  H   UNL     1      -2.888  -2.126   3.463  1.00  0.00     0.293 HD
ENDBRANCH  27  32
BRANCH  31  34
ATOM     34  O   UNL     1      -6.272  -3.338   0.523  1.00  0.00    -0.508 OA
ATOM     35  H   UNL     1      -6.837  -3.174  -0.250  1.00  0.00     0.293 HD
ENDBRANCH  31  34
ENDBRANCH  19  26
BRANCH  21  36
ATOM     36  O   UNL     1      -4.227   2.601   1.335  1.00  0.00    -0.502 OA
ATOM     37  H   UNL     1      -4.162   3.564   1.505  1.00  0.00     0.293 HD
ENDBRANCH  21  36
ENDBRANCH   1  11
TORSDOF 11
