REMARK SMILES Cc1ccc2c3c4c(ccc13)C(C)(C)OC4=C(C(C)C)C2=O
REMARK SMILES IDX 1 1 2 2 11 3 10 4 9 5 8 6 7 7 6 8 5 9 4 10 3 11 21 12 22 13
REMARK SMILES IDX 17 14 16 15 15 16 12 17 13 18 14 19 18 20 19 21 20 22
REMARK H PARENT
ROOT
ATOM      1  C   UNL     1       5.169  -0.015  -0.349  1.00  0.00     0.045 C 
ATOM      2  C   UNL     1       3.785  -0.591  -0.213  1.00  0.00    -0.043 A 
ATOM      3  C   UNL     1       2.643   0.248  -0.132  1.00  0.00    -0.014 A 
ATOM      4  C   UNL     1       2.640   1.677  -0.166  1.00  0.00     0.009 A 
ATOM      5  C   UNL     1       1.450   2.430  -0.080  1.00  0.00     0.009 A 
ATOM      6  C   UNL     1       0.252   1.752   0.042  1.00  0.00     0.006 A 
ATOM      7  C   UNL     1       0.265   0.380   0.075  1.00  0.00     0.033 A 
ATOM      8  C   UNL     1       1.395  -0.391  -0.007  1.00  0.00     0.004 A 
ATOM      9  C   UNL     1       1.237  -1.773   0.039  1.00  0.00     0.031 A 
ATOM     10  C   UNL     1       2.366  -2.582  -0.043  1.00  0.00     0.013 A 
ATOM     11  C   UNL     1       3.630  -1.994  -0.167  1.00  0.00     0.005 A 
ATOM     12  C   UNL     1      -0.138  -2.355   0.171  1.00  0.00     0.193 C 
ATOM     13  O   UNL     1      -0.279  -3.574   0.207  1.00  0.00    -0.289 OA
ATOM     14  C   UNL     1      -1.334  -1.417   0.255  1.00  0.00     0.045 C 
ATOM     15  C   UNL     1      -1.075  -0.099   0.207  1.00  0.00     0.136 C 
ATOM     16  O   UNL     1      -1.964   0.959   0.251  1.00  0.00    -0.482 OA
ATOM     17  C   UNL     1      -1.176   2.200   0.156  1.00  0.00     0.129 C 
ATOM     18  C   UNL     1      -1.425   3.012   1.426  1.00  0.00     0.062 C 
ATOM     19  C   UNL     1      -1.642   2.955  -1.088  1.00  0.00     0.062 C 
ENDROOT
BRANCH  14  20
ATOM     20  C   UNL     1      -2.691  -2.076   0.405  1.00  0.00     0.021 C 
ATOM     21  C   UNL     1      -3.236  -2.485  -0.967  1.00  0.00     0.013 C 
ATOM     22  C   UNL     1      -3.739  -1.246   1.154  1.00  0.00     0.013 C 
ENDBRANCH  14  20
TORSDOF 1
