REMARK SMILES C=C1CCCC(C)(C)C12CC=C(C=O)CC2
REMARK SMILES IDX 7 1 6 2 5 3 4 4 3 5 2 6 1 7 9 8 16 9 15 10 12 11 11 12 10 13
REMARK SMILES IDX 8 14 13 15 14 16
REMARK H PARENT
ROOT
ATOM      1  C   UNL     1      -1.644  -1.548   1.447  1.00  0.00     0.012 C 
ATOM      2  C   UNL     1      -1.321  -1.003   0.029  1.00  0.00    -0.026 C 
ATOM      3  C   UNL     1      -2.505  -0.103  -0.441  1.00  0.00     0.008 C 
ATOM      4  C   UNL     1      -2.648   1.197   0.348  1.00  0.00     0.005 C 
ATOM      5  C   UNL     1      -1.347   1.987   0.409  1.00  0.00     0.031 C 
ATOM      6  C   UNL     1      -0.205   1.105   0.877  1.00  0.00    -0.070 C 
ATOM      7  C   UNL     1       0.419   1.432   2.024  1.00  0.00     0.008 C 
ATOM      8  C   UNL     1       0.054  -0.170   0.017  1.00  0.00    -0.000 C 
ATOM      9  C   UNL     1       1.249  -1.044   0.532  1.00  0.00     0.017 C 
ATOM     10  C   UNL     1       2.644  -0.395   0.422  1.00  0.00     0.039 C 
ATOM     11  C   UNL     1       2.809   0.525  -0.747  1.00  0.00    -0.012 C 
ATOM     12  C   UNL     1       1.820   0.821  -1.602  1.00  0.00    -0.019 C 
ATOM     13  C   UNL     1       0.439   0.247  -1.450  1.00  0.00     0.039 C 
ATOM     14  C   UNL     1      -1.309  -2.239  -0.907  1.00  0.00     0.012 C 
ENDROOT
BRANCH  11  15
ATOM     15  C   UNL     1       4.147   1.132  -0.962  1.00  0.00     0.255 C 
ATOM     16  O   UNL     1       5.104   0.895  -0.235  1.00  0.00    -0.298 OA
ENDBRANCH  11  15
TORSDOF 1
