REMARK SMILES CC(C)=CCc1c(O)c(CC=C(C)C)c2c(c1O)C(=O)C[C@@H](c1ccc(O)cc1O)O2
REMARK SMILES IDX 6 1 7 2 9 3 15 4 16 5 17 6 19 7 20 8 21 9 22 10 31 11 5 12
REMARK SMILES IDX 4 13 2 14 1 15 3 16 8 17 18 19 10 21 11 22 12 23 13 24 14 25
REMARK SMILES IDX 23 26 29 27 24 28 28 29 25 30 26 31 30 32 27 34
REMARK H PARENT 8 18 18 20 30 33 27 35
ROOT
ATOM      1  C   UNL     1      -2.753  -0.441   0.617  1.00  0.00     0.041 A 
ATOM      2  C   UNL     1      -2.002  -1.328  -0.180  1.00  0.00     0.130 A 
ATOM      3  C   UNL     1      -0.623  -1.140  -0.413  1.00  0.00     0.041 A 
ATOM      4  C   UNL     1       0.013  -0.029   0.165  1.00  0.00     0.142 A 
ATOM      5  C   UNL     1      -0.711   0.857   0.966  1.00  0.00     0.102 A 
ATOM      6  C   UNL     1      -2.083   0.657   1.183  1.00  0.00     0.137 A 
ATOM      7  C   UNL     1       0.010   1.980   1.604  1.00  0.00     0.174 C 
ATOM      8  O   UNL     1      -0.599   2.773   2.320  1.00  0.00    -0.294 OA
ATOM      9  C   UNL     1       1.492   2.054   1.394  1.00  0.00     0.131 C 
ATOM     10  C   UNL     1       1.801   1.488   0.018  1.00  0.00     0.215 C 
ATOM     11  O   UNL     1       1.358   0.122  -0.066  1.00  0.00    -0.484 OA
ENDROOT
BRANCH   1  12
ATOM     12  C   UNL     1      -4.238  -0.622   0.863  1.00  0.00     0.070 C 
BRANCH  12  13
ATOM     13  C   UNL     1      -5.076  -0.079  -0.267  1.00  0.00    -0.023 C 
ATOM     14  C   UNL     1      -5.951   0.947  -0.234  1.00  0.00    -0.080 C 
ATOM     15  C   UNL     1      -6.707   1.349  -1.475  1.00  0.00     0.039 C 
ATOM     16  C   UNL     1      -6.262   1.792   0.971  1.00  0.00     0.039 C 
ENDBRANCH  12  13
ENDBRANCH   1  12
BRANCH   2  17
ATOM     17  O   UNL     1      -2.574  -2.426  -0.771  1.00  0.00    -0.507 OA
ATOM     18  H   UNL     1      -3.535  -2.416  -0.653  1.00  0.00     0.293 HD
ENDBRANCH   2  17
BRANCH   6  19
ATOM     19  O   UNL     1      -2.813   1.517   1.969  1.00  0.00    -0.507 OA
ATOM     20  H   UNL     1      -2.215   2.222   2.305  1.00  0.00     0.293 HD
ENDBRANCH   6  19
BRANCH   3  21
ATOM     21  C   UNL     1       0.163  -2.126  -1.259  1.00  0.00     0.070 C 
BRANCH  21  22
ATOM     22  C   UNL     1       0.724  -3.262  -0.442  1.00  0.00    -0.023 C 
ATOM     23  C   UNL     1       2.006  -3.664  -0.331  1.00  0.00    -0.080 C 
ATOM     24  C   UNL     1       3.182  -3.030  -1.020  1.00  0.00     0.039 C 
ATOM     25  C   UNL     1       2.363  -4.846   0.533  1.00  0.00     0.039 C 
ENDBRANCH  21  22
ENDBRANCH   3  21
BRANCH  10  26
ATOM     26  C   UNL     1       3.294   1.548  -0.250  1.00  0.00     0.035 A 
ATOM     27  C   UNL     1       3.867   2.670  -0.866  1.00  0.00     0.126 A 
ATOM     28  C   UNL     1       4.146   0.505   0.152  1.00  0.00     0.015 A 
ATOM     29  C   UNL     1       5.241   2.749  -1.104  1.00  0.00     0.092 A 
ATOM     30  C   UNL     1       5.520   0.575  -0.082  1.00  0.00     0.047 A 
ATOM     31  C   UNL     1       6.055   1.693  -0.709  1.00  0.00     0.119 A 
BRANCH  27  32
ATOM     32  O   UNL     1       3.050   3.706  -1.225  1.00  0.00    -0.507 OA
ATOM     33  H   UNL     1       3.581   4.398  -1.654  1.00  0.00     0.293 HD
ENDBRANCH  27  32
BRANCH  31  34
ATOM     34  O   UNL     1       7.403   1.715  -0.915  1.00  0.00    -0.508 OA
ATOM     35  H   UNL     1       7.642   2.541  -1.366  1.00  0.00     0.293 HD
ENDBRANCH  31  34
ENDBRANCH  10  26
TORSDOF 9
