REMARK SMILES O=c1cccc2n1C[C@@H]1CCCN3CCC[C@H]2[C@H]13
REMARK SMILES IDX 11 1 10 2 9 3 8 4 7 5 2 6 1 7 3 8 4 9 5 10 6 11 17 12 18 13
REMARK SMILES IDX 13 14 12 15 14 16 15 17 16 18
REMARK H PARENT
ROOT
ATOM      1  C   UNL     1      -2.271   1.728   0.449  1.00  0.00     0.016 C 
ATOM      2  C   UNL     1      -1.026   2.100  -0.327  1.00  0.00     0.008 C 
ATOM      3  C   UNL     1      -0.680   1.064  -1.416  1.00  0.00     0.027 C 
ATOM      4  C   UNL     1       0.779   1.277  -1.860  1.00  0.00     0.131 C 
ATOM      5  N   UNL     1       1.692   0.936  -0.760  1.00  0.00    -0.312 N 
ATOM      6  C   UNL     1       2.672   1.855  -0.388  1.00  0.00     0.250 C 
ATOM      7  O   UNL     1       2.905   2.911  -0.969  1.00  0.00    -0.269 OA
ATOM      8  C   UNL     1       3.461   1.509   0.821  1.00  0.00     0.072 C 
ATOM      9  C   UNL     1       3.209   0.376   1.486  1.00  0.00     0.007 C 
ATOM     10  C   UNL     1       2.197  -0.539   1.023  1.00  0.00     0.022 C 
ATOM     11  C   UNL     1       1.472  -0.266  -0.075  1.00  0.00     0.026 C 
ATOM     12  C   UNL     1       0.431  -1.180  -0.704  1.00  0.00     0.054 C 
ATOM     13  C   UNL     1      -0.908  -0.429  -1.012  1.00  0.00     0.070 C 
ATOM     14  N   UNL     1      -2.044  -0.636  -0.088  1.00  0.00    -0.299 NA
ATOM     15  C   UNL     1      -2.118   0.324   1.010  1.00  0.00     0.085 C 
ATOM     16  C   UNL     1      -2.170  -2.015   0.385  1.00  0.00     0.085 C 
ATOM     17  C   UNL     1      -0.879  -2.568   0.977  1.00  0.00     0.016 C 
ATOM     18  C   UNL     1       0.207  -2.570  -0.083  1.00  0.00     0.013 C 
ENDROOT
TORSDOF 0
