REMARK SMILES Cc1coc2c1C(=O)C(=O)c1c-2ccc2c1CC[C@@H](O)[C@]2(C)O
REMARK SMILES IDX 1 1 2 2 3 3 4 4 5 5 6 6 7 7 8 8 9 9 10 10 11 11 12 12 13 13
REMARK SMILES IDX 14 14 15 15 16 16 17 17 18 18 19 19 21 20 22 21 23 22 20 24
REMARK H PARENT 23 23 20 25
ROOT
ATOM      1  C   UNL     1       6.020  -0.135   0.934  1.00  0.00     0.048 C 
ATOM      2  C   UNL     1       4.800   0.053   0.113  1.00  0.00    -0.001 A 
ATOM      3  C   UNL     1       4.729   0.387  -1.229  1.00  0.00     0.200 A 
ATOM      4  O   UNL     1       3.434   0.468  -1.647  1.00  0.00    -0.463 OA
ATOM      5  C   UNL     1       2.672   0.185  -0.565  1.00  0.00     0.146 A 
ATOM      6  C   UNL     1       3.448  -0.069   0.533  1.00  0.00     0.075 A 
ATOM      7  C   UNL     1       2.803  -0.393   1.779  1.00  0.00     0.237 C 
ATOM      8  O   UNL     1       3.427  -0.731   2.776  1.00  0.00    -0.285 OA
ATOM      9  C   UNL     1       1.261  -0.288   1.820  1.00  0.00     0.234 C 
ATOM     10  O   UNL     1       0.706  -0.281   2.911  1.00  0.00    -0.285 OA
ATOM     11  C   UNL     1       0.493  -0.134   0.521  1.00  0.00     0.041 A 
ATOM     12  C   UNL     1       1.230   0.151  -0.654  1.00  0.00     0.030 A 
ATOM     13  C   UNL     1       0.568   0.361  -1.860  1.00  0.00     0.013 A 
ATOM     14  C   UNL     1      -0.822   0.309  -1.908  1.00  0.00     0.008 A 
ATOM     15  C   UNL     1      -1.595   0.041  -0.760  1.00  0.00    -0.010 A 
ATOM     16  C   UNL     1      -0.927  -0.235   0.463  1.00  0.00    -0.030 A 
ATOM     17  C   UNL     1      -1.721  -0.633   1.692  1.00  0.00     0.039 C 
ATOM     18  C   UNL     1      -3.161  -1.049   1.415  1.00  0.00     0.040 C 
ATOM     19  C   UNL     1      -3.845  -0.062   0.483  1.00  0.00     0.150 C 
ATOM     20  C   UNL     1      -3.121  -0.009  -0.892  1.00  0.00     0.113 C 
ATOM     21  C   UNL     1      -3.689   1.161  -1.718  1.00  0.00     0.050 C 
ENDROOT
BRANCH  20  22
ATOM     22  O   UNL     1      -3.396  -1.225  -1.605  1.00  0.00    -0.383 OA
ATOM     23  H   UNL     1      -4.351  -1.251  -1.785  1.00  0.00     0.211 HD
ENDBRANCH  20  22
BRANCH  19  24
ATOM     24  O   UNL     1      -3.952   1.219   1.110  1.00  0.00    -0.390 OA
ATOM     25  H   UNL     1      -3.059   1.596   1.197  1.00  0.00     0.211 HD
ENDBRANCH  19  24
TORSDOF 2
