REMARK SMILES COc1cc2c(c(O)c1OC)-c1c(cc3c(c1OC)OCO3)C[C@@H](C)[C@@H](C)C2
REMARK SMILES IDX 13 1 14 2 15 3 16 4 17 5 12 6 20 7 21 8 22 9 23 10 24 11
REMARK SMILES IDX 25 12 26 13 27 14 6 16 7 17 5 18 9 19 4 20 3 21 8 22 28 24
REMARK SMILES IDX 10 26 11 27 2 28 1 29 18 30 19 31
REMARK H PARENT 8 23
REMARK Flexibility Score:    8.900
ROOT
ATOM      1  C   UNL     1      -1.672   1.230   0.030  1.00  0.00    -0.032 A 
ATOM      2  C   UNL     1      -2.469   2.222  -0.585  1.00  0.00     0.055 A 
ATOM      3  C   UNL     1      -1.908   3.063  -1.517  1.00  0.00     0.170 A 
ATOM      4  C   UNL     1      -0.585   2.981  -1.873  1.00  0.00     0.208 A 
ATOM      5  C   UNL     1       0.250   2.034  -1.300  1.00  0.00     0.173 A 
ATOM      6  C   UNL     1      -0.287   1.144  -0.313  1.00  0.00     0.035 A 
ATOM      7  O   UNL     1      -0.266   3.931  -2.798  1.00  0.00    -0.450 OA
ATOM      8  C   UNL     1      -1.527   4.599  -2.981  1.00  0.00     0.468 C 
ATOM      9  O   UNL     1      -2.578   4.053  -2.167  1.00  0.00    -0.453 OA
ENDROOT
BRANCH   1  10
ATOM     10  C   UNL     1      -2.386   0.395   1.082  1.00  0.00     0.040 C 
BRANCH  10  11
ATOM     11  C   UNL     1      -2.088  -1.104   1.302  1.00  0.00    -0.007 C 
ATOM     12  C   UNL     1      -3.136  -1.676   2.277  1.00  0.00     0.008 C 
BRANCH  11  13
ATOM     13  C   UNL     1      -1.984  -1.992   0.024  1.00  0.00    -0.007 CG0
ATOM     14  C   UNL     1      -3.258  -1.989  -0.827  1.00  0.00     0.008 C 
ATOM     15  G   UNL     1      -0.765  -1.691  -0.881  1.00  0.00     0.000 G0
ENDBRANCH  11  13
ENDBRANCH  10  11
ENDBRANCH   1  10
BRANCH   6  16
ATOM     16  C   UNL     1       0.612   0.112   0.268  1.00  0.00     0.035 A 
ATOM     17  C   UNL     1       1.670   0.437   1.141  1.00  0.00     0.170 A 
ATOM     18  C   UNL     1       0.443  -1.252  -0.081  1.00  0.00    -0.032 A 
ATOM     19  C   UNL     1       2.536  -0.554   1.630  1.00  0.00     0.203 A 
ATOM     20  C   UNL     1       1.317  -2.238   0.421  1.00  0.00     0.055 A 
ATOM     21  C   UNL     1       2.363  -1.900   1.279  1.00  0.00     0.164 A 
BRANCH  17  22
ATOM     22  O   UNL     1       1.899   1.730   1.551  1.00  0.00    -0.504 OA
ATOM     23  H   UNL     1       1.403   2.326   0.968  1.00  0.00     0.293 HD
ENDBRANCH  17  22
BRANCH  18  24
ATOM     24  C   UNL     1      -0.765  -1.691  -0.881  1.00  0.00     0.040 CG0
ATOM     25  G   UNL     1      -1.984  -1.992   0.024  1.00  0.00     0.000 G0
ENDBRANCH  18  24
BRANCH  19  26
ATOM     26  O   UNL     1       3.534  -0.212   2.516  1.00  0.00    -0.490 OA
ATOM     27  C   UNL     1       4.701   0.180   1.797  1.00  0.00     0.278 C 
ENDBRANCH  19  26
BRANCH  21  28
ATOM     28  O   UNL     1       3.256  -2.789   1.819  1.00  0.00    -0.493 OA
ATOM     29  C   UNL     1       3.037  -4.170   1.570  1.00  0.00     0.278 C 
ENDBRANCH  21  28
ENDBRANCH   6  16
BRANCH   5  30
ATOM     30  O   UNL     1       1.586   1.881  -1.573  1.00  0.00    -0.492 OA
ATOM     31  C   UNL     1       2.117   2.528  -2.721  1.00  0.00     0.278 C 
ENDBRANCH   5  30
TORSDOF 4
