REMARK SMILES C[C@H]1COC2=C1C(=O)C(=O)c1c2ccc2c1CCCC2(C)C
REMARK SMILES IDX 1 1 2 2 3 3 4 4 5 5 6 6 7 7 8 8 9 9 10 10 11 11 12 12 13 13
REMARK SMILES IDX 14 14 15 15 16 16 17 17 18 18 19 19 20 20 21 21 22 22
REMARK H PARENT
ROOT
ATOM      1  C   UNL     1       5.267  -0.913  -1.381  1.00  0.00     0.017 C 
ATOM      2  C   UNL     1       4.745  -0.348  -0.064  1.00  0.00     0.062 C 
ATOM      3  C   UNL     1       4.708   1.191  -0.072  1.00  0.00     0.238 C 
ATOM      4  O   UNL     1       3.344   1.621  -0.317  1.00  0.00    -0.492 OA
ATOM      5  C   UNL     1       2.602   0.488  -0.017  1.00  0.00     0.134 C 
ATOM      6  C   UNL     1       3.309  -0.619   0.142  1.00  0.00     0.052 C 
ATOM      7  C   UNL     1       2.671  -1.889   0.453  1.00  0.00     0.233 C 
ATOM      8  O   UNL     1       3.303  -2.934   0.485  1.00  0.00    -0.285 OA
ATOM      9  C   UNL     1       1.173  -1.840   0.756  1.00  0.00     0.234 C 
ATOM     10  O   UNL     1       0.668  -2.792   1.335  1.00  0.00    -0.285 OA
ATOM     11  C   UNL     1       0.400  -0.608   0.379  1.00  0.00     0.040 A 
ATOM     12  C   UNL     1       1.145   0.541   0.041  1.00  0.00     0.029 A 
ATOM     13  C   UNL     1       0.475   1.729  -0.248  1.00  0.00     0.013 A 
ATOM     14  C   UNL     1      -0.916   1.786  -0.194  1.00  0.00     0.005 A 
ATOM     15  C   UNL     1      -1.689   0.658   0.139  1.00  0.00    -0.038 A 
ATOM     16  C   UNL     1      -1.025  -0.570   0.391  1.00  0.00    -0.032 A 
ATOM     17  C   UNL     1      -1.823  -1.823   0.693  1.00  0.00     0.036 C 
ATOM     18  C   UNL     1      -3.296  -1.743   0.320  1.00  0.00     0.006 C 
ATOM     19  C   UNL     1      -3.886  -0.445   0.836  1.00  0.00     0.011 C 
ATOM     20  C   UNL     1      -3.222   0.788   0.179  1.00  0.00    -0.010 C 
ATOM     21  C   UNL     1      -3.667   2.018   1.004  1.00  0.00     0.016 C 
ATOM     22  C   UNL     1      -3.746   0.955  -1.265  1.00  0.00     0.016 C 
ENDROOT
TORSDOF 0
