REMARK SMILES CC(C)c1cc2c(cc1O)[C@@]1(C)CCCC(C)(C)[C@@H]1CC2=O
REMARK SMILES IDX 4 1 9 2 8 3 7 4 6 5 5 6 21 7 22 8 20 9 19 10 11 11 13 12
REMARK SMILES IDX 14 13 15 14 16 15 17 16 18 17 12 18 2 19 1 20 3 21 10 22
REMARK H PARENT 10 23
ROOT
ATOM      1  C   UNL     1       3.290   0.009  -0.366  1.00  0.00    -0.003 A 
ATOM      2  C   UNL     1       2.690   0.765  -1.377  1.00  0.00     0.119 A 
ATOM      3  C   UNL     1       1.310   1.002  -1.392  1.00  0.00     0.051 A 
ATOM      4  C   UNL     1       0.468   0.476  -0.394  1.00  0.00    -0.027 A 
ATOM      5  C   UNL     1       1.071  -0.271   0.635  1.00  0.00     0.022 A 
ATOM      6  C   UNL     1       2.458  -0.500   0.643  1.00  0.00     0.020 A 
ATOM      7  C   UNL     1       0.269  -0.830   1.756  1.00  0.00     0.163 C 
ATOM      8  O   UNL     1       0.826  -1.342   2.725  1.00  0.00    -0.294 OA
ATOM      9  C   UNL     1      -1.235  -0.720   1.697  1.00  0.00     0.086 C 
ATOM     10  C   UNL     1      -1.747  -0.501   0.267  1.00  0.00     0.013 C 
ATOM     11  C   UNL     1      -1.053   0.751  -0.381  1.00  0.00    -0.003 C 
ATOM     12  C   UNL     1      -1.617   0.946  -1.815  1.00  0.00     0.012 C 
ATOM     13  C   UNL     1      -3.140   0.969  -1.884  1.00  0.00     0.001 C 
ATOM     14  C   UNL     1      -3.736  -0.311  -1.320  1.00  0.00     0.007 C 
ATOM     15  C   UNL     1      -3.312  -0.598   0.139  1.00  0.00    -0.031 C 
ATOM     16  C   UNL     1      -3.774  -2.045   0.460  1.00  0.00     0.011 C 
ATOM     17  C   UNL     1      -4.085   0.324   1.101  1.00  0.00     0.011 C 
ATOM     18  C   UNL     1      -1.223   2.072   0.406  1.00  0.00     0.017 C 
ENDROOT
BRANCH   1  19
ATOM     19  C   UNL     1       4.788  -0.249  -0.342  1.00  0.00     0.017 C 
ATOM     20  C   UNL     1       5.446   0.393   0.883  1.00  0.00     0.012 C 
ATOM     21  C   UNL     1       5.104  -1.746  -0.407  1.00  0.00     0.012 C 
ENDBRANCH   1  19
BRANCH   2  22
ATOM     22  O   UNL     1       3.474   1.288  -2.367  1.00  0.00    -0.508 OA
ATOM     23  H   UNL     1       2.918   1.783  -2.990  1.00  0.00     0.293 HD
ENDBRANCH   2  22
TORSDOF 2
