REMARK SMILES O=c1cccc2n1C[C@H]1C[C@@H]2CN2CCCC[C@H]12
REMARK SMILES IDX 16 1 15 2 14 3 13 4 12 5 11 6 10 7 9 8 18 9 17 10 8 11 7 12
REMARK SMILES IDX 6 13 5 14 4 15 3 16 2 17 1 18
REMARK H PARENT
ROOT
ATOM      1  C   UNL     1       3.838   0.622  -0.447  1.00  0.00     0.003 C 
ATOM      2  C   UNL     1       3.791  -0.893  -0.257  1.00  0.00     0.016 C 
ATOM      3  C   UNL     1       2.431  -1.400   0.228  1.00  0.00     0.085 C 
ATOM      4  N   UNL     1       1.345  -0.759  -0.509  1.00  0.00    -0.299 NA
ATOM      5  C   UNL     1       0.049  -1.413  -0.313  1.00  0.00     0.094 C 
ATOM      6  C   UNL     1      -0.790  -0.935   0.902  1.00  0.00     0.051 C 
ATOM      7  C   UNL     1      -0.219   0.321   1.559  1.00  0.00     0.018 C 
ATOM      8  C   UNL     1       0.100   1.283   0.421  1.00  0.00     0.027 C 
ATOM      9  C   UNL     1       1.304   0.717  -0.395  1.00  0.00     0.061 C 
ATOM     10  C   UNL     1       2.623   1.298   0.173  1.00  0.00     0.019 C 
ATOM     11  C   UNL     1      -1.157   1.536  -0.452  1.00  0.00     0.131 C 
ATOM     12  N   UNL     1      -2.313   0.654  -0.244  1.00  0.00    -0.312 N 
ATOM     13  C   UNL     1      -2.175  -0.568   0.415  1.00  0.00     0.025 C 
ATOM     14  C   UNL     1      -3.243  -1.359   0.609  1.00  0.00     0.022 C 
ATOM     15  C   UNL     1      -4.539  -0.970   0.120  1.00  0.00     0.007 C 
ATOM     16  C   UNL     1      -4.699   0.183  -0.539  1.00  0.00     0.072 C 
ATOM     17  C   UNL     1      -3.537   1.082  -0.767  1.00  0.00     0.250 C 
ATOM     18  O   UNL     1      -3.707   2.131  -1.384  1.00  0.00    -0.269 OA
ENDROOT
TORSDOF 0
