REMARK SMILES Cc1coc2c1C(=O)C(=O)c1c-2ccc2c1CCC[C@@]2(O)CO
REMARK SMILES IDX 1 1 2 2 3 3 4 4 5 5 6 6 7 7 8 8 9 9 10 10 11 11 12 12 13 13
REMARK SMILES IDX 14 14 15 15 16 16 17 17 18 18 19 19 20 20 22 21 23 22 21 24
REMARK H PARENT 23 23 21 25
ROOT
ATOM      1  C   UNL     1       6.110  -0.814   0.159  1.00  0.00     0.048 C 
ATOM      2  C   UNL     1       4.868  -0.008   0.092  1.00  0.00    -0.001 A 
ATOM      3  C   UNL     1       4.758   1.369   0.007  1.00  0.00     0.200 A 
ATOM      4  O   UNL     1       3.452   1.757  -0.041  1.00  0.00    -0.463 OA
ATOM      5  C   UNL     1       2.721   0.619   0.016  1.00  0.00     0.146 A 
ATOM      6  C   UNL     1       3.528  -0.483   0.104  1.00  0.00     0.075 A 
ATOM      7  C   UNL     1       2.918  -1.786   0.172  1.00  0.00     0.237 C 
ATOM      8  O   UNL     1       3.572  -2.821   0.148  1.00  0.00    -0.285 OA
ATOM      9  C   UNL     1       1.378  -1.836   0.289  1.00  0.00     0.234 C 
ATOM     10  O   UNL     1       0.852  -2.885   0.637  1.00  0.00    -0.285 OA
ATOM     11  C   UNL     1       0.577  -0.573   0.038  1.00  0.00     0.041 A 
ATOM     12  C   UNL     1       1.278   0.654  -0.044  1.00  0.00     0.030 A 
ATOM     13  C   UNL     1       0.582   1.848  -0.211  1.00  0.00     0.013 A 
ATOM     14  C   UNL     1      -0.809   1.839  -0.270  1.00  0.00     0.008 A 
ATOM     15  C   UNL     1      -1.546   0.641  -0.172  1.00  0.00    -0.010 A 
ATOM     16  C   UNL     1      -0.841  -0.588  -0.081  1.00  0.00    -0.030 A 
ATOM     17  C   UNL     1      -1.603  -1.898  -0.122  1.00  0.00     0.037 C 
ATOM     18  C   UNL     1      -3.011  -1.773  -0.690  1.00  0.00     0.008 C 
ATOM     19  C   UNL     1      -3.750  -0.657   0.026  1.00  0.00     0.043 C 
ATOM     20  C   UNL     1      -3.073   0.704  -0.228  1.00  0.00     0.113 C 
ENDROOT
BRANCH  20  21
ATOM     21  C   UNL     1      -3.674   1.749   0.753  1.00  0.00     0.196 C 
BRANCH  21  22
ATOM     22  O   UNL     1      -5.093   1.830   0.566  1.00  0.00    -0.393 OA
ATOM     23  H   UNL     1      -5.426   2.472   1.218  1.00  0.00     0.210 HD
ENDBRANCH  21  22
ENDBRANCH  20  21
BRANCH  20  24
ATOM     24  O   UNL     1      -3.416   1.116  -1.561  1.00  0.00    -0.383 OA
ATOM     25  H   UNL     1      -4.365   1.347  -1.516  1.00  0.00     0.211 HD
ENDBRANCH  20  24
TORSDOF 3
