REMARK SMILES COc1cc2c(c(OC)c1OC)-c1c(cc3c(c1OC)OCO3)CC(C)C(C)(O)C2
REMARK SMILES IDX 6 1 7 2 10 3 3 4 4 5 5 6 30 7 27 8 28 9 25 10 26 11 29 13
REMARK SMILES IDX 13 15 18 16 14 17 17 18 15 19 16 20 21 21 23 22 22 23 19 24
REMARK SMILES IDX 20 25 24 26 2 28 1 29 8 30 9 31 11 32 12 33
REMARK H PARENT 29 14
REMARK Flexibility Score:   11.900
ROOT
ATOM      1  C   UNL     1      -0.663   0.146  -0.310  1.00  0.00     0.035 A 
ATOM      2  C   UNL     1      -2.001   0.252   0.140  1.00  0.00     0.172 A 
ATOM      3  C   UNL     1      -2.584   1.495   0.450  1.00  0.00     0.203 A 
ATOM      4  C   UNL     1      -1.828   2.669   0.321  1.00  0.00     0.164 A 
ATOM      5  C   UNL     1      -0.487   2.565  -0.065  1.00  0.00     0.055 A 
ATOM      6  C   UNL     1       0.107   1.323  -0.384  1.00  0.00    -0.029 A 
ENDROOT
BRANCH   6   7
ATOM      7  C   UNL     1       1.570   1.314  -0.797  1.00  0.00     0.071 C 
BRANCH   7   8
ATOM      8  C   UNL     1       2.617   1.233   0.357  1.00  0.00     0.069 C 
ATOM      9  C   UNL     1       3.946   1.781  -0.212  1.00  0.00     0.042 C 
BRANCH   8  10
ATOM     10  C   UNL     1       2.842  -0.210   0.933  1.00  0.00     0.022 CG0
ATOM     11  C   UNL     1       3.781  -0.222   2.155  1.00  0.00     0.011 C 
ATOM     12  G   UNL     1       1.547  -0.958   1.336  1.00  0.00     0.000 G0
ENDBRANCH   8  10
BRANCH   8  13
ATOM     13  O   UNL     1       2.223   2.130   1.405  1.00  0.00    -0.390 OA
ATOM     14  H   UNL     1       2.974   2.255   2.008  1.00  0.00     0.211 HD
ENDBRANCH   8  13
ENDBRANCH   7   8
ENDBRANCH   6   7
BRANCH   1  15
ATOM     15  C   UNL     1      -0.078  -1.170  -0.645  1.00  0.00     0.035 A 
ATOM     16  C   UNL     1      -0.537  -1.899  -1.771  1.00  0.00     0.173 A 
ATOM     17  C   UNL     1       0.950  -1.725   0.170  1.00  0.00    -0.032 A 
ATOM     18  C   UNL     1       0.020  -3.139  -2.037  1.00  0.00     0.208 A 
ATOM     19  C   UNL     1       1.481  -2.995  -0.130  1.00  0.00     0.055 A 
ATOM     20  C   UNL     1       0.996  -3.668  -1.229  1.00  0.00     0.170 A 
ATOM     21  O   UNL     1      -0.267  -3.961  -3.086  1.00  0.00    -0.450 OA
ATOM     22  O   UNL     1       1.430  -4.886  -1.653  1.00  0.00    -0.453 OA
ATOM     23  C   UNL     1       0.622  -5.064  -2.831  1.00  0.00     0.468 C 
BRANCH  16  24
ATOM     24  O   UNL     1      -1.447  -1.302  -2.605  1.00  0.00    -0.492 OA
ATOM     25  C   UNL     1      -2.584  -2.120  -2.869  1.00  0.00     0.278 C 
ENDBRANCH  16  24
BRANCH  17  26
ATOM     26  C   UNL     1       1.547  -0.958   1.336  1.00  0.00     0.042 CG0
ATOM     27  G   UNL     1       2.842  -0.210   0.933  1.00  0.00     0.000 G0
ENDBRANCH  17  26
ENDBRANCH   1  15
BRANCH   4  28
ATOM     28  O   UNL     1      -2.457   3.858   0.583  1.00  0.00    -0.493 OA
ATOM     29  C   UNL     1      -1.765   5.055   0.254  1.00  0.00     0.278 C 
ENDBRANCH   4  28
BRANCH   2  30
ATOM     30  O   UNL     1      -2.762  -0.896   0.247  1.00  0.00    -0.492 OA
ATOM     31  C   UNL     1      -2.764  -1.364   1.594  1.00  0.00     0.278 C 
ENDBRANCH   2  30
BRANCH   3  32
ATOM     32  O   UNL     1      -3.915   1.477   0.802  1.00  0.00    -0.490 OA
ATOM     33  C   UNL     1      -4.214   2.211   1.986  1.00  0.00     0.278 C 
ENDBRANCH   3  32
TORSDOF 5
