REMARK SMILES COc1cc([C@@H]2[C@H]3CO[C@@]4(O)C(=O)[C@@H]2C=C([C@@H]2CC(=O)c5c(O)cc(O)cc5O2)[C@@H]34)ccc1O
REMARK SMILES IDX 6 1 7 2 8 3 9 4 10 5 30 6 16 7 15 8 14 9 12 10 13 11 5 12
REMARK SMILES IDX 3 13 33 14 4 15 32 16 31 17 2 18 1 19 34 20 11 22 17 24
REMARK SMILES IDX 18 25 29 26 19 27 28 28 20 29 21 30 27 31 22 32 25 33 24 34
REMARK SMILES IDX 23 35 26 37
REMARK H PARENT 34 21 11 23 23 36 26 38
ROOT
ATOM      1  C   UNL     1       1.929  -1.886  -1.031  1.00  0.00     0.040 C 
ATOM      2  C   UNL     1       0.723  -1.257  -1.832  1.00  0.00     0.037 C 
ATOM      3  C   UNL     1       0.308  -2.190  -2.965  1.00  0.00     0.169 C 
ATOM      4  O   UNL     1      -0.372  -3.284  -2.335  1.00  0.00    -0.343 OA
ATOM      5  C   UNL     1      -0.744  -2.871  -1.011  1.00  0.00     0.234 C 
ATOM      6  C   UNL     1      -0.561  -1.330  -0.982  1.00  0.00     0.092 C 
ATOM      7  C   UNL     1      -0.337  -0.785   0.424  1.00  0.00    -0.023 C 
ATOM      8  C   UNL     1       0.671  -1.382   1.089  1.00  0.00    -0.011 C 
ATOM      9  C   UNL     1       1.416  -2.454   0.323  1.00  0.00     0.093 C 
ATOM     10  C   UNL     1       0.308  -3.453  -0.018  1.00  0.00     0.199 C 
ATOM     11  O   UNL     1       0.226  -4.576   0.477  1.00  0.00    -0.293 OA
ENDROOT
BRANCH   1  12
ATOM     12  C   UNL     1       3.119  -0.952  -0.839  1.00  0.00    -0.040 A 
ATOM     13  C   UNL     1       4.092   1.226  -0.322  1.00  0.00     0.160 A 
ATOM     14  C   UNL     1       5.365   0.666  -0.458  1.00  0.00     0.157 A 
ATOM     15  C   UNL     1       2.973   0.412  -0.516  1.00  0.00     0.054 A 
ATOM     16  C   UNL     1       5.538  -0.674  -0.770  1.00  0.00     0.050 A 
ATOM     17  C   UNL     1       4.417  -1.482  -0.956  1.00  0.00     0.008 A 
BRANCH  13  18
ATOM     18  O   UNL     1       4.078   2.559  -0.002  1.00  0.00    -0.493 OA
ATOM     19  C   UNL     1       2.805   3.155   0.217  1.00  0.00     0.278 C 
ENDBRANCH  13  18
BRANCH  14  20
ATOM     20  O   UNL     1       6.481   1.437  -0.279  1.00  0.00    -0.504 OA
ATOM     21  H   UNL     1       6.142   2.329  -0.068  1.00  0.00     0.293 HD
ENDBRANCH  14  20
ENDBRANCH   1  12
BRANCH   5  22
ATOM     22  O   UNL     1      -2.070  -3.250  -0.750  1.00  0.00    -0.359 OA
ATOM     23  H   UNL     1      -2.013  -4.198  -0.527  1.00  0.00     0.214 HD
ENDBRANCH   5  22
BRANCH   7  24
ATOM     24  C   UNL     1      -1.254   0.311   0.910  1.00  0.00     0.207 C 
ATOM     25  C   UNL     1      -0.909   0.880   2.281  1.00  0.00     0.131 C 
ATOM     26  O   UNL     1      -2.579  -0.241   0.922  1.00  0.00    -0.485 OA
ATOM     27  C   UNL     1      -1.893   1.974   2.583  1.00  0.00     0.174 C 
ATOM     28  C   UNL     1      -3.538   0.660   1.303  1.00  0.00     0.138 A 
ATOM     29  O   UNL     1      -1.605   2.968   3.244  1.00  0.00    -0.294 OA
ATOM     30  C   UNL     1      -3.269   1.781   2.093  1.00  0.00     0.102 A 
ATOM     31  C   UNL     1      -4.840   0.397   0.878  1.00  0.00     0.093 A 
ATOM     32  C   UNL     1      -4.300   2.665   2.425  1.00  0.00     0.133 A 
ATOM     33  C   UNL     1      -5.859   1.283   1.220  1.00  0.00     0.123 A 
ATOM     34  C   UNL     1      -5.597   2.418   1.984  1.00  0.00     0.093 A 
BRANCH  32  35
ATOM     35  O   UNL     1      -4.105   3.784   3.187  1.00  0.00    -0.507 OA
ATOM     36  H   UNL     1      -3.156   3.823   3.444  1.00  0.00     0.293 HD
ENDBRANCH  32  35
BRANCH  33  37
ATOM     37  O   UNL     1      -7.144   1.071   0.819  1.00  0.00    -0.508 OA
ATOM     38  H   UNL     1      -7.191   0.234   0.327  1.00  0.00     0.293 HD
ENDBRANCH  33  37
ENDBRANCH   7  24
TORSDOF 7
