REMARK SMILES COc1c(O)cc2c(c1OC)-c1c(cc(O)c(OC)c1OC)C[C@H](C)[C@H](C)C2
REMARK SMILES IDX 12 1 20 2 17 3 15 4 14 5 13 6 23 7 24 8 25 9 26 10 27 11
REMARK SMILES IDX 8 13 9 14 7 15 3 16 6 17 4 18 10 19 11 20 28 21 2 23 1 24
REMARK SMILES IDX 5 25 16 27 21 29 22 30 18 31 19 32
REMARK H PARENT 5 26 16 28
REMARK Flexibility Score:    8.900
ROOT
ATOM      1  C   UNL     1      -0.295  -0.738  -0.033  1.00  0.00     0.035 A 
ATOM      2  C   UNL     1      -1.206  -1.266   0.920  1.00  0.00     0.172 A 
ATOM      3  C   UNL     1      -1.300  -2.644   1.148  1.00  0.00     0.203 A 
ATOM      4  C   UNL     1      -0.407  -3.493   0.505  1.00  0.00     0.161 A 
ATOM      5  C   UNL     1       0.532  -3.003  -0.392  1.00  0.00     0.054 A 
ATOM      6  C   UNL     1       0.607  -1.624  -0.671  1.00  0.00    -0.032 A 
ENDROOT
BRANCH   6   7
ATOM      7  C   UNL     1       1.675  -1.152  -1.639  1.00  0.00     0.040 C 
BRANCH   7   8
ATOM      8  C   UNL     1       3.042  -0.760  -1.018  1.00  0.00    -0.007 C 
ATOM      9  C   UNL     1       3.575  -1.819  -0.043  1.00  0.00     0.008 C 
BRANCH   8  10
ATOM     10  C   UNL     1       3.095   0.693  -0.458  1.00  0.00    -0.007 CG0
ATOM     11  C   UNL     1       4.494   1.043   0.074  1.00  0.00     0.008 C 
ATOM     12  G   UNL     1       2.041   1.020   0.621  1.00  0.00     0.000 G0
ENDBRANCH   8  10
ENDBRANCH   7   8
ENDBRANCH   6   7
BRANCH   1  13
ATOM     13  C   UNL     1      -0.312   0.709  -0.350  1.00  0.00     0.035 A 
ATOM     14  C   UNL     1      -1.419   1.280  -1.022  1.00  0.00     0.172 A 
ATOM     15  C   UNL     1       0.765   1.555   0.000  1.00  0.00    -0.032 A 
ATOM     16  C   UNL     1      -1.492   2.659  -1.260  1.00  0.00     0.203 A 
ATOM     17  C   UNL     1       0.697   2.935  -0.284  1.00  0.00     0.054 A 
ATOM     18  C   UNL     1      -0.426   3.479  -0.902  1.00  0.00     0.161 A 
BRANCH  14  19
ATOM     19  O   UNL     1      -2.469   0.470  -1.401  1.00  0.00    -0.492 OA
ATOM     20  C   UNL     1      -2.373   0.160  -2.791  1.00  0.00     0.278 C 
ENDBRANCH  14  19
BRANCH  15  21
ATOM     21  C   UNL     1       2.041   1.020   0.621  1.00  0.00     0.040 CG0
ATOM     22  G   UNL     1       3.095   0.693  -0.458  1.00  0.00     0.000 G0
ENDBRANCH  15  21
BRANCH  16  23
ATOM     23  O   UNL     1      -2.580   3.198  -1.902  1.00  0.00    -0.490 OA
ATOM     24  C   UNL     1      -3.581   3.535  -0.942  1.00  0.00     0.278 C 
ENDBRANCH  16  23
BRANCH  18  25
ATOM     25  O   UNL     1      -0.490   4.819  -1.162  1.00  0.00    -0.504 OA
ATOM     26  H   UNL     1       0.352   5.232  -0.916  1.00  0.00     0.293 HD
ENDBRANCH  18  25
ENDBRANCH   1  13
BRANCH   4  27
ATOM     27  O   UNL     1      -0.438  -4.840   0.740  1.00  0.00    -0.504 OA
ATOM     28  H   UNL     1      -1.139  -4.964   1.409  1.00  0.00     0.293 HD
ENDBRANCH   4  27
BRANCH   2  29
ATOM     29  O   UNL     1      -2.021  -0.399   1.616  1.00  0.00    -0.492 OA
ATOM     30  C   UNL     1      -1.440  -0.099   2.886  1.00  0.00     0.278 C 
ENDBRANCH   2  29
BRANCH   3  31
ATOM     31  O   UNL     1      -2.188  -3.248   2.005  1.00  0.00    -0.490 OA
ATOM     32  C   UNL     1      -3.538  -2.831   1.792  1.00  0.00     0.278 C 
ENDBRANCH   3  31
TORSDOF 6
