REMARK SMILES COc1cc([C@@H]2Oc3ccc([C@H]4Oc5cc(O)cc(O)c5C(=O)[C@@H]4O)cc3O[C@H]2CO)ccc1O
REMARK SMILES IDX 6 1 29 2 28 3 27 4 8 5 7 6 9 7 10 8 11 9 26 10 5 11 3 12
REMARK SMILES IDX 34 13 4 14 33 15 32 16 2 17 1 18 35 19 30 21 31 22 12 24
REMARK SMILES IDX 24 25 13 26 22 27 14 28 23 29 21 30 15 31 19 32 16 33 18 34
REMARK SMILES IDX 25 35 20 37 17 39
REMARK H PARENT 35 20 31 23 25 36 20 38 17 40
ROOT
ATOM      1  C   UNL     1      -3.030  -0.287   0.736  1.00  0.00     0.247 C 
ATOM      2  C   UNL     1      -2.437  -1.694   0.507  1.00  0.00     0.244 C 
ATOM      3  O   UNL     1      -1.082  -1.735   1.009  1.00  0.00    -0.480 OA
ATOM      4  C   UNL     1      -0.351  -0.650   0.610  1.00  0.00     0.162 A 
ATOM      5  C   UNL     1      -0.927   0.517   0.112  1.00  0.00     0.162 A 
ATOM      6  O   UNL     1      -2.277   0.698  -0.004  1.00  0.00    -0.478 OA
ATOM      7  C   UNL     1      -0.117   1.571  -0.300  1.00  0.00     0.051 A 
ATOM      8  C   UNL     1       1.272   1.471  -0.189  1.00  0.00     0.012 A 
ATOM      9  C   UNL     1       1.867   0.309   0.330  1.00  0.00    -0.001 A 
ATOM     10  C   UNL     1       1.035  -0.748   0.736  1.00  0.00     0.058 A 
ENDROOT
BRANCH   1  11
ATOM     11  C   UNL     1      -4.477  -0.110   0.316  1.00  0.00     0.000 A 
ATOM     12  C   UNL     1      -6.195  -0.079  -1.424  1.00  0.00     0.160 A 
ATOM     13  C   UNL     1      -7.149   0.231  -0.446  1.00  0.00     0.157 A 
ATOM     14  C   UNL     1      -4.862  -0.243  -1.033  1.00  0.00     0.058 A 
ATOM     15  C   UNL     1      -6.787   0.373   0.893  1.00  0.00     0.050 A 
ATOM     16  C   UNL     1      -5.455   0.204   1.271  1.00  0.00     0.012 A 
BRANCH  12  17
ATOM     17  O   UNL     1      -6.658  -0.191  -2.709  1.00  0.00    -0.493 OA
ATOM     18  C   UNL     1      -5.724  -0.575  -3.707  1.00  0.00     0.278 C 
ENDBRANCH  12  17
BRANCH  13  19
ATOM     19  O   UNL     1      -8.458   0.399  -0.817  1.00  0.00    -0.504 OA
ATOM     20  H   UNL     1      -8.981   0.622  -0.033  1.00  0.00     0.293 HD
ENDBRANCH  13  19
ENDBRANCH   1  11
BRANCH   2  21
ATOM     21  C   UNL     1      -3.195  -2.801   1.249  1.00  0.00     0.205 C 
BRANCH  21  22
ATOM     22  O   UNL     1      -4.397  -3.156   0.580  1.00  0.00    -0.392 OA
ATOM     23  H   UNL     1      -4.831  -3.850   1.105  1.00  0.00     0.210 HD
ENDBRANCH  21  22
ENDBRANCH   2  21
BRANCH   9  24
ATOM     24  C   UNL     1       3.377   0.185   0.486  1.00  0.00     0.240 C 
ATOM     25  C   UNL     1       3.850   0.797   1.809  1.00  0.00     0.231 C 
ATOM     26  O   UNL     1       3.986   0.835  -0.646  1.00  0.00    -0.481 OA
ATOM     27  C   UNL     1       5.364   0.727   1.860  1.00  0.00     0.202 C 
ATOM     28  C   UNL     1       5.351   0.876  -0.599  1.00  0.00     0.138 A 
ATOM     29  O   UNL     1       5.989   0.637   2.918  1.00  0.00    -0.291 OA
ATOM     30  C   UNL     1       6.088   0.814   0.583  1.00  0.00     0.105 A 
ATOM     31  C   UNL     1       6.009   1.025  -1.819  1.00  0.00     0.093 A 
ATOM     32  C   UNL     1       7.487   0.863   0.537  1.00  0.00     0.133 A 
ATOM     33  C   UNL     1       7.399   1.077  -1.852  1.00  0.00     0.123 A 
ATOM     34  C   UNL     1       8.148   0.992  -0.682  1.00  0.00     0.093 A 
BRANCH  25  35
ATOM     35  O   UNL     1       3.340   0.082   2.938  1.00  0.00    -0.381 OA
ATOM     36  H   UNL     1       3.887   0.349   3.704  1.00  0.00     0.211 HD
ENDBRANCH  25  35
BRANCH  32  37
ATOM     37  O   UNL     1       8.274   0.800   1.655  1.00  0.00    -0.507 OA
ATOM     38  H   UNL     1       7.691   0.705   2.442  1.00  0.00     0.293 HD
ENDBRANCH  32  37
BRANCH  33  39
ATOM     39  O   UNL     1       7.999   1.213  -3.069  1.00  0.00    -0.508 OA
ATOM     40  H   UNL     1       8.964   1.232  -2.946  1.00  0.00     0.293 HD
ENDBRANCH  33  39
ENDBRANCH   9  24
TORSDOF 9
