REMARK SMILES O=C1C=CC[C@@H]2[C@H]3CCCN4CCC[C@@H](CN12)[C@@H]34
REMARK SMILES IDX 13 1 14 2 15 3 16 4 17 5 6 6 5 7 4 8 3 9 2 10 1 11 7 12
REMARK SMILES IDX 18 13 11 14 12 15 10 16 9 17 8 18
REMARK H PARENT
ROOT
ATOM      1  C   UNL     1      -2.733   1.866   0.267  1.00  0.00     0.016 C 
ATOM      2  C   UNL     1      -1.892   2.179  -0.965  1.00  0.00     0.008 C 
ATOM      3  C   UNL     1      -0.593   1.364  -0.982  1.00  0.00     0.026 C 
ATOM      4  C   UNL     1       0.399   1.882   0.056  1.00  0.00     0.125 C 
ATOM      5  N   UNL     1       1.644   1.129   0.065  1.00  0.00    -0.335 N 
ATOM      6  C   UNL     1       1.544  -0.335   0.151  1.00  0.00     0.093 C 
ATOM      7  C   UNL     1       2.895  -1.025  -0.155  1.00  0.00     0.053 C 
ATOM      8  C   UNL     1       4.059  -0.304   0.436  1.00  0.00    -0.019 C 
ATOM      9  C   UNL     1       3.995   0.997   0.739  1.00  0.00     0.067 C 
ATOM     10  C   UNL     1       2.783   1.809   0.477  1.00  0.00     0.246 C 
ATOM     11  O   UNL     1       2.848   3.024   0.645  1.00  0.00    -0.270 OA
ATOM     12  C   UNL     1       0.440  -0.932  -0.769  1.00  0.00     0.030 C 
ATOM     13  C   UNL     1      -0.886  -0.134  -0.781  1.00  0.00     0.066 C 
ATOM     14  N   UNL     1      -1.700  -0.400   0.419  1.00  0.00    -0.300 NA
ATOM     15  C   UNL     1      -2.958   0.364   0.417  1.00  0.00     0.085 C 
ATOM     16  C   UNL     1      -1.980  -1.833   0.628  1.00  0.00     0.085 C 
ATOM     17  C   UNL     1      -1.268  -2.775  -0.344  1.00  0.00     0.016 C 
ATOM     18  C   UNL     1       0.208  -2.426  -0.444  1.00  0.00     0.009 C 
ENDROOT
TORSDOF 0
