REMARK SMILES COc1cc2c(c(OC)c1OC)-c1c(cc(OC)c(OC)c1OC)C[C@@](C)(O)[C@@H](C)C2
REMARK SMILES IDX 13 1 22 2 19 3 16 4 15 5 14 6 25 7 26 8 27 9 29 10 30 11
REMARK SMILES IDX 28 13 6 15 7 16 5 17 10 18 4 19 3 20 8 21 9 22 31 23 11 25
REMARK SMILES IDX 12 26 2 27 1 28 17 29 18 30 23 31 24 32 20 33 21 34
REMARK H PARENT 28 14
REMARK Flexibility Score:    8.900
ROOT
ATOM      1  C   UNL     1      -0.337   0.618   0.028  1.00  0.00     0.035 A 
ATOM      2  C   UNL     1      -1.299   1.387  -0.657  1.00  0.00     0.172 A 
ATOM      3  C   UNL     1      -1.240   2.789  -0.649  1.00  0.00     0.203 A 
ATOM      4  C   UNL     1      -0.182   3.459  -0.022  1.00  0.00     0.164 A 
ATOM      5  C   UNL     1       0.811   2.704   0.607  1.00  0.00     0.055 A 
ATOM      6  C   UNL     1       0.750   1.296   0.628  1.00  0.00    -0.029 A 
ENDROOT
BRANCH   6   7
ATOM      7  C   UNL     1       1.920   0.513   1.186  1.00  0.00     0.071 C 
BRANCH   7   8
ATOM      8  C   UNL     1       2.989   0.177   0.105  1.00  0.00     0.069 C 
ATOM      9  C   UNL     1       3.981   1.354   0.013  1.00  0.00     0.042 C 
BRANCH   8  10
ATOM     10  C   UNL     1       2.378  -0.177  -1.298  1.00  0.00     0.022 CG0
ATOM     11  C   UNL     1       3.460  -0.303  -2.395  1.00  0.00     0.011 C 
ATOM     12  G   UNL     1       1.551  -1.487  -1.337  1.00  0.00     0.000 G0
ENDBRANCH   8  10
BRANCH   8  13
ATOM     13  O   UNL     1       3.730  -0.951   0.598  1.00  0.00    -0.390 OA
ATOM     14  H   UNL     1       4.512  -1.078   0.035  1.00  0.00     0.211 HD
ENDBRANCH   8  13
ENDBRANCH   7   8
ENDBRANCH   6   7
BRANCH   1  15
ATOM     15  C   UNL     1      -0.489  -0.847   0.178  1.00  0.00     0.035 A 
ATOM     16  C   UNL     1      -1.529  -1.335   1.013  1.00  0.00     0.172 A 
ATOM     17  C   UNL     1       0.383  -1.789  -0.413  1.00  0.00    -0.032 A 
ATOM     18  C   UNL     1      -1.769  -2.707   1.171  1.00  0.00     0.203 A 
ATOM     19  C   UNL     1       0.135  -3.175  -0.207  1.00  0.00     0.055 A 
ATOM     20  C   UNL     1      -0.922  -3.642   0.578  1.00  0.00     0.164 A 
BRANCH  16  21
ATOM     21  O   UNL     1      -2.354  -0.431   1.654  1.00  0.00    -0.492 OA
ATOM     22  C   UNL     1      -1.976  -0.303   3.024  1.00  0.00     0.278 C 
ENDBRANCH  16  21
BRANCH  17  23
ATOM     23  C   UNL     1       1.551  -1.487  -1.337  1.00  0.00     0.042 CG0
ATOM     24  G   UNL     1       2.378  -0.177  -1.298  1.00  0.00     0.000 G0
ENDBRANCH  17  23
BRANCH  18  25
ATOM     25  O   UNL     1      -2.805  -3.142   1.965  1.00  0.00    -0.490 OA
ATOM     26  C   UNL     1      -4.008  -3.182   1.198  1.00  0.00     0.278 C 
ENDBRANCH  18  25
BRANCH  20  27
ATOM     27  O   UNL     1      -1.215  -4.961   0.801  1.00  0.00    -0.493 OA
ATOM     28  C   UNL     1      -0.263  -5.924   0.372  1.00  0.00     0.278 C 
ENDBRANCH  20  27
ENDBRANCH   1  15
BRANCH   4  29
ATOM     29  O   UNL     1      -0.204   4.827  -0.090  1.00  0.00    -0.493 OA
ATOM     30  C   UNL     1       0.844   5.535   0.556  1.00  0.00     0.278 C 
ENDBRANCH   4  29
BRANCH   2  31
ATOM     31  O   UNL     1      -2.343   0.751  -1.293  1.00  0.00    -0.492 OA
ATOM     32  C   UNL     1      -2.071   0.643  -2.689  1.00  0.00     0.278 C 
ENDBRANCH   2  31
BRANCH   3  33
ATOM     33  O   UNL     1      -2.204   3.519  -1.309  1.00  0.00    -0.490 OA
ATOM     34  C   UNL     1      -3.323   3.720  -0.447  1.00  0.00     0.278 C 
ENDBRANCH   3  33
TORSDOF 7
