REMARK SMILES COc1cc(C2Oc3c(O)cc([C@@H]4CC(=O)c5c(O)cc(O)cc5O4)cc3C2CO)ccc1O
REMARK SMILES IDX 6 1 28 2 27 3 8 4 7 5 9 6 11 7 12 8 26 9 5 10 3 11 33 12
REMARK SMILES IDX 4 13 32 14 31 15 2 16 1 17 34 18 29 20 30 21 10 23 13 25
REMARK SMILES IDX 14 26 25 27 15 28 24 29 16 30 17 31 23 32 18 33 21 34 20 35
REMARK SMILES IDX 19 36 22 38
REMARK H PARENT 34 19 30 22 10 24 19 37 22 39
ROOT
ATOM      1  C   UNL     1       2.832   0.668  -0.671  1.00  0.00     0.214 C 
ATOM      2  C   UNL     1       1.747  -0.235  -1.310  1.00  0.00     0.094 C 
ATOM      3  C   UNL     1       0.595   0.217  -0.474  1.00  0.00     0.008 A 
ATOM      4  C   UNL     1       1.081   0.827   0.675  1.00  0.00     0.165 A 
ATOM      5  O   UNL     1       2.454   0.889   0.713  1.00  0.00    -0.481 OA
ATOM      6  C   UNL     1       0.233   1.278   1.665  1.00  0.00     0.158 A 
ATOM      7  C   UNL     1      -1.142   1.132   1.482  1.00  0.00     0.057 A 
ATOM      8  C   UNL     1      -1.656   0.515   0.316  1.00  0.00    -0.003 A 
ATOM      9  C   UNL     1      -0.766   0.053  -0.673  1.00  0.00     0.016 A 
ENDROOT
BRANCH   1  10
ATOM     10  C   UNL     1       4.265   0.191  -0.817  1.00  0.00    -0.003 A 
ATOM     11  C   UNL     1       6.367  -0.603   0.146  1.00  0.00     0.160 A 
ATOM     12  C   UNL     1       6.907  -0.680  -1.143  1.00  0.00     0.157 A 
ATOM     13  C   UNL     1       5.047  -0.163   0.298  1.00  0.00     0.058 A 
ATOM     14  C   UNL     1       6.155  -0.322  -2.261  1.00  0.00     0.050 A 
ATOM     15  C   UNL     1       4.840   0.115  -2.096  1.00  0.00     0.011 A 
BRANCH  11  16
ATOM     16  O   UNL     1       7.196  -0.973   1.173  1.00  0.00    -0.493 OA
ATOM     17  C   UNL     1       6.678  -0.899   2.493  1.00  0.00     0.278 C 
ENDBRANCH  11  16
BRANCH  12  18
ATOM     18  O   UNL     1       8.198  -1.110  -1.304  1.00  0.00    -0.504 OA
ATOM     19  H   UNL     1       8.423  -1.099  -2.246  1.00  0.00     0.293 HD
ENDBRANCH  12  18
ENDBRANCH   1  10
BRANCH   2  20
ATOM     20  C   UNL     1       1.959  -1.754  -1.200  1.00  0.00     0.168 C 
BRANCH  20  21
ATOM     21  O   UNL     1       2.069  -2.248   0.130  1.00  0.00    -0.396 OA
ATOM     22  H   UNL     1       2.631  -1.642   0.645  1.00  0.00     0.210 HD
ENDBRANCH  20  21
ENDBRANCH   2  20
BRANCH   6  23
ATOM     23  O   UNL     1       0.745   1.857   2.785  1.00  0.00    -0.504 OA
ATOM     24  H   UNL     1       0.021   2.031   3.407  1.00  0.00     0.293 HD
ENDBRANCH   6  23
BRANCH   8  25
ATOM     25  C   UNL     1      -3.154   0.366   0.101  1.00  0.00     0.211 C 
ATOM     26  C   UNL     1      -3.719   1.614  -0.563  1.00  0.00     0.131 C 
ATOM     27  O   UNL     1      -3.792   0.128   1.367  1.00  0.00    -0.484 OA
ATOM     28  C   UNL     1      -5.191   1.407  -0.770  1.00  0.00     0.174 C 
ATOM     29  C   UNL     1      -5.155   0.021   1.268  1.00  0.00     0.138 A 
ATOM     30  O   UNL     1      -5.816   1.918  -1.697  1.00  0.00    -0.294 OA
ATOM     31  C   UNL     1      -5.900   0.601   0.240  1.00  0.00     0.102 A 
ATOM     32  C   UNL     1      -5.801  -0.688   2.280  1.00  0.00     0.093 A 
ATOM     33  C   UNL     1      -7.290   0.441   0.208  1.00  0.00     0.133 A 
ATOM     34  C   UNL     1      -7.185  -0.838   2.237  1.00  0.00     0.123 A 
ATOM     35  C   UNL     1      -7.937  -0.284   1.205  1.00  0.00     0.093 A 
BRANCH  33  36
ATOM     36  O   UNL     1      -8.080   0.980  -0.772  1.00  0.00    -0.507 OA
ATOM     37  H   UNL     1      -7.502   1.477  -1.395  1.00  0.00     0.293 HD
ENDBRANCH  33  36
BRANCH  34  38
ATOM     38  O   UNL     1      -7.775  -1.548   3.241  1.00  0.00    -0.508 OA
ATOM     39  H   UNL     1      -8.734  -1.574   3.087  1.00  0.00     0.293 HD
ENDBRANCH  34  38
ENDBRANCH   8  25
TORSDOF 9
