REMARK SMILES C=C(C)[C@H](CCC(C)(C)O)Cc1c(O)cc(OC)c2c1O[C@H](c1ccc(O)cc1O)[C@@H](O)C2=O
REMARK SMILES IDX 4 1 2 2 1 3 3 4 5 5 6 6 7 7 8 8 9 9 10 10 11 12 12 13 20 14
REMARK SMILES IDX 13 15 19 16 21 17 15 18 16 19 33 20 22 21 34 22 31 23 14 24
REMARK SMILES IDX 17 26 18 27 23 28 29 29 24 30 28 31 25 32 26 33 30 34 27 36
REMARK SMILES IDX 32 38
REMARK H PARENT 10 11 14 25 30 35 27 37 32 39
ROOT
ATOM      1  C   UNL     1       2.308  -0.628  -0.105  1.00  0.00     0.019 C 
ENDROOT
BRANCH   1   2
ATOM      2  C   UNL     1       1.935  -0.133   1.293  1.00  0.00    -0.077 C 
ATOM      3  C   UNL     1       2.662  -0.500   2.363  1.00  0.00     0.008 C 
ATOM      4  C   UNL     1       0.739   0.760   1.466  1.00  0.00     0.039 C 
ENDBRANCH   1   2
BRANCH   1   5
ATOM      5  C   UNL     1       3.355   0.293  -0.794  1.00  0.00     0.011 C 
BRANCH   5   6
ATOM      6  C   UNL     1       2.927   1.747  -1.027  1.00  0.00     0.035 C 
BRANCH   6   7
ATOM      7  C   UNL     1       3.925   2.609  -1.830  1.00  0.00     0.059 C 
ATOM      8  C   UNL     1       4.089   2.116  -3.269  1.00  0.00     0.042 C 
ATOM      9  C   UNL     1       5.290   2.718  -1.147  1.00  0.00     0.042 C 
BRANCH   7  10
ATOM     10  O   UNL     1       3.373   3.930  -1.914  1.00  0.00    -0.390 OA
ATOM     11  H   UNL     1       3.299   4.280  -1.009  1.00  0.00     0.211 HD
ENDBRANCH   7  10
ENDBRANCH   6   7
ENDBRANCH   5   6
ENDBRANCH   1   5
BRANCH   1  12
ATOM     12  C   UNL     1       1.124  -0.944  -1.066  1.00  0.00     0.051 C 
BRANCH  12  13
ATOM     13  C   UNL     1       0.051  -1.914  -0.587  1.00  0.00     0.038 A 
ATOM     14  C   UNL     1      -1.324  -1.596  -0.736  1.00  0.00     0.142 A 
ATOM     15  C   UNL     1       0.380  -3.167  -0.053  1.00  0.00     0.126 A 
ATOM     16  C   UNL     1      -2.323  -2.481  -0.301  1.00  0.00     0.105 A 
ATOM     17  O   UNL     1      -1.602  -0.423  -1.392  1.00  0.00    -0.481 OA
ATOM     18  C   UNL     1      -0.602  -4.037   0.411  1.00  0.00     0.093 A 
ATOM     19  C   UNL     1      -1.947  -3.682   0.315  1.00  0.00     0.137 A 
ATOM     20  C   UNL     1      -3.746  -2.153  -0.577  1.00  0.00     0.202 C 
ATOM     21  C   UNL     1      -2.899   0.153  -1.160  1.00  0.00     0.244 C 
ATOM     22  O   UNL     1      -4.661  -2.911  -0.260  1.00  0.00    -0.291 OA
ATOM     23  C   UNL     1      -4.020  -0.872  -1.339  1.00  0.00     0.231 C 
BRANCH  15  24
ATOM     24  O   UNL     1       1.685  -3.570  -0.023  1.00  0.00    -0.507 OA
ATOM     25  H   UNL     1       1.741  -4.456   0.372  1.00  0.00     0.293 HD
ENDBRANCH  15  24
BRANCH  19  26
ATOM     26  O   UNL     1      -2.845  -4.624   0.743  1.00  0.00    -0.496 OA
ATOM     27  C   UNL     1      -3.261  -4.345   2.081  1.00  0.00     0.278 C 
ENDBRANCH  19  26
BRANCH  21  28
ATOM     28  C   UNL     1      -2.855   1.077   0.048  1.00  0.00     0.038 A 
ATOM     29  C   UNL     1      -3.463   0.827   1.283  1.00  0.00     0.126 A 
ATOM     30  C   UNL     1      -2.136   2.285  -0.089  1.00  0.00     0.015 A 
ATOM     31  C   UNL     1      -3.372   1.736   2.342  1.00  0.00     0.092 A 
ATOM     32  C   UNL     1      -2.042   3.199   0.961  1.00  0.00     0.047 A 
ATOM     33  C   UNL     1      -2.660   2.917   2.169  1.00  0.00     0.119 A 
BRANCH  29  34
ATOM     34  O   UNL     1      -4.156  -0.331   1.465  1.00  0.00    -0.507 OA
ATOM     35  H   UNL     1      -4.615  -0.315   2.323  1.00  0.00     0.293 HD
ENDBRANCH  29  34
BRANCH  33  36
ATOM     36  O   UNL     1      -2.538   3.833   3.171  1.00  0.00    -0.508 OA
ATOM     37  H   UNL     1      -3.029   3.523   3.949  1.00  0.00     0.293 HD
ENDBRANCH  33  36
ENDBRANCH  21  28
BRANCH  23  38
ATOM     38  O   UNL     1      -4.175  -1.193  -2.734  1.00  0.00    -0.381 OA
ATOM     39  H   UNL     1      -3.330  -1.563  -3.046  1.00  0.00     0.211 HD
ENDBRANCH  23  38
ENDBRANCH  12  13
ENDBRANCH   1  12
TORSDOF 13
