REMARK SMILES Cc1coc2c1C(=O)C(=O)c1c-2ccc2c1CCCC2(C)CO
REMARK SMILES IDX 22 1 20 2 2 3 3 4 6 5 4 6 5 7 7 8 12 9 8 10 9 11 11 12 13 13
REMARK SMILES IDX 10 14 16 15 14 16 15 17 17 18 18 19 19 20 1 21 21 22 23 23
REMARK H PARENT 23 24
ROOT
ATOM      1  C   UNL     1      -3.397   2.034   0.478  1.00  0.00     0.167 C 
ENDROOT
BRANCH   1   2
ATOM      2  C   UNL     1      -2.950   0.556   0.267  1.00  0.00     0.016 C 
ATOM      3  C   UNL     1       4.994  -0.325   0.506  1.00  0.00    -0.001 A 
ATOM      4  C   UNL     1       4.800   0.408   1.665  1.00  0.00     0.200 A 
ATOM      5  C   UNL     1       3.698  -0.469  -0.058  1.00  0.00     0.075 A 
ATOM      6  O   UNL     1       3.483   0.708   1.842  1.00  0.00    -0.463 OA
ATOM      7  C   UNL     1       2.829   0.166   0.787  1.00  0.00     0.146 A 
ATOM      8  C   UNL     1       3.175  -1.110  -1.237  1.00  0.00     0.237 C 
ATOM      9  C   UNL     1       1.393   0.270   0.664  1.00  0.00     0.030 A 
ATOM     10  O   UNL     1       3.874  -1.780  -1.985  1.00  0.00    -0.285 OA
ATOM     11  C   UNL     1       1.670  -0.919  -1.534  1.00  0.00     0.234 C 
ATOM     12  C   UNL     1       0.775  -0.308  -0.470  1.00  0.00     0.041 A 
ATOM     13  C   UNL     1       0.624   0.902   1.636  1.00  0.00     0.013 A 
ATOM     14  O   UNL     1       1.254  -1.229  -2.643  1.00  0.00    -0.285 OA
ATOM     15  C   UNL     1      -0.644  -0.274  -0.598  1.00  0.00    -0.032 A 
ATOM     16  C   UNL     1      -0.758   0.981   1.487  1.00  0.00     0.005 A 
ATOM     17  C   UNL     1      -1.416   0.422   0.373  1.00  0.00    -0.036 A 
ATOM     18  C   UNL     1      -1.326  -0.958  -1.766  1.00  0.00     0.036 C 
ATOM     19  C   UNL     1      -2.821  -1.176  -1.586  1.00  0.00     0.006 C 
ATOM     20  C   UNL     1      -3.473   0.111  -1.121  1.00  0.00     0.014 C 
ATOM     21  C   UNL     1       6.274  -0.844  -0.032  1.00  0.00     0.048 C 
ATOM     22  C   UNL     1      -3.593  -0.333   1.359  1.00  0.00     0.019 C 
ENDBRANCH   1   2
BRANCH   1  23
ATOM     23  O   UNL     1      -4.796   2.219   0.274  1.00  0.00    -0.395 OA
ATOM     24  H   UNL     1      -5.264   1.800   1.016  1.00  0.00     0.210 HD
ENDBRANCH   1  23
TORSDOF 2
