REMARK SMILES Cc1coc2c1C(=O)c1ccc3c(c1C2=O)CCCC3(C)CO
REMARK SMILES IDX 22 1 20 2 2 3 3 4 6 5 4 6 5 7 7 8 15 9 8 10 9 11 14 12 16 13
REMARK SMILES IDX 10 14 13 15 11 16 12 17 17 18 18 19 19 20 1 21 21 22 23 23
REMARK H PARENT 23 24
ROOT
ATOM      1  C   UNL     1      -3.650   1.606   0.497  1.00  0.00     0.167 C 
ENDROOT
BRANCH   1   2
ATOM      2  C   UNL     1      -3.023   0.218   0.165  1.00  0.00     0.016 C 
ATOM      3  C   UNL     1       5.088   0.025  -0.165  1.00  0.00    -0.001 A 
ATOM      4  C   UNL     1       5.411  -0.971   0.737  1.00  0.00     0.200 A 
ATOM      5  C   UNL     1       3.667   0.113  -0.128  1.00  0.00     0.075 A 
ATOM      6  O   UNL     1       4.294  -1.488   1.316  1.00  0.00    -0.460 OA
ATOM      7  C   UNL     1       3.239  -0.821   0.780  1.00  0.00     0.185 A 
ATOM      8  C   UNL     1       2.719   0.950  -0.815  1.00  0.00     0.198 C 
ATOM      9  C   UNL     1       1.882  -1.096   1.164  1.00  0.00     0.229 C 
ATOM     10  O   UNL     1       3.059   1.820  -1.608  1.00  0.00    -0.288 OA
ATOM     11  C   UNL     1       1.274   0.693  -0.510  1.00  0.00     0.034 A 
ATOM     12  C   UNL     1       0.837  -0.302   0.400  1.00  0.00     0.041 A 
ATOM     13  O   UNL     1       1.583  -1.880   2.054  1.00  0.00    -0.285 OA
ATOM     14  C   UNL     1       0.340   1.484  -1.184  1.00  0.00     0.013 A 
ATOM     15  C   UNL     1      -0.563  -0.518   0.588  1.00  0.00    -0.032 A 
ATOM     16  C   UNL     1      -1.020   1.313  -0.953  1.00  0.00     0.005 A 
ATOM     17  C   UNL     1      -1.499   0.339  -0.056  1.00  0.00    -0.036 A 
ATOM     18  C   UNL     1      -1.057  -1.644   1.477  1.00  0.00     0.036 C 
ATOM     19  C   UNL     1      -2.527  -1.994   1.305  1.00  0.00     0.006 C 
ATOM     20  C   UNL     1      -3.362  -0.731   1.341  1.00  0.00     0.014 C 
ATOM     21  C   UNL     1       6.021   0.829  -0.990  1.00  0.00     0.048 C 
ATOM     22  C   UNL     1      -3.670  -0.329  -1.130  1.00  0.00     0.019 C 
ENDBRANCH   1   2
BRANCH   1  23
ATOM     23  O   UNL     1      -5.045   1.495   0.769  1.00  0.00    -0.395 OA
ATOM     24  H   UNL     1      -5.361   2.383   1.011  1.00  0.00     0.210 HD
ENDBRANCH   1  23
TORSDOF 2
