REMARK SMILES COc1c(O)cc2c(c1OC)-c1c(cc3c(c1OC)OCO3)C[C@@H](C)[C@@H](C)C2
REMARK SMILES IDX 12 1 17 2 16 3 15 4 14 5 13 6 22 7 21 8 20 9 23 10 24 11
REMARK SMILES IDX 25 12 26 13 27 14 8 16 9 17 7 18 3 19 6 20 4 21 10 22 11 23
REMARK SMILES IDX 28 24 2 26 1 27 5 28 18 30 19 31
REMARK H PARENT 5 29
REMARK Flexibility Score:    8.900
ROOT
ATOM      1  C   UNL     1      -0.035   0.739  -0.146  1.00  0.00     0.035 A 
ATOM      2  C   UNL     1      -0.689   1.644  -1.019  1.00  0.00     0.173 A 
ATOM      3  C   UNL     1      -0.269   2.966  -1.036  1.00  0.00     0.208 A 
ATOM      4  C   UNL     1       0.747   3.406  -0.220  1.00  0.00     0.170 A 
ATOM      5  C   UNL     1       1.417   2.564   0.640  1.00  0.00     0.055 A 
ATOM      6  C   UNL     1       1.033   1.214   0.678  1.00  0.00    -0.032 A 
ATOM      7  O   UNL     1       1.026   4.728  -0.385  1.00  0.00    -0.453 OA
ATOM      8  C   UNL     1       0.080   5.076  -1.412  1.00  0.00     0.468 C 
ATOM      9  O   UNL     1      -0.744   3.971  -1.827  1.00  0.00    -0.450 OA
ENDROOT
BRANCH   6  10
ATOM     10  C   UNL     1       1.849   0.242   1.500  1.00  0.00     0.040 C 
BRANCH  10  11
ATOM     11  C   UNL     1       3.008  -0.379   0.686  1.00  0.00    -0.007 C 
ATOM     12  C   UNL     1       3.529  -1.619   1.422  1.00  0.00     0.008 C 
BRANCH  11  13
ATOM     13  C   UNL     1       2.690  -0.638  -0.819  1.00  0.00    -0.007 CG0
ATOM     14  C   UNL     1       3.979  -0.972  -1.595  1.00  0.00     0.008 C 
ATOM     15  G   UNL     1       1.637  -1.725  -1.123  1.00  0.00     0.000 G0
ENDBRANCH  11  13
ENDBRANCH  10  11
ENDBRANCH   6  10
BRANCH   1  16
ATOM     16  C   UNL     1      -0.496  -0.666  -0.025  1.00  0.00     0.035 A 
ATOM     17  C   UNL     1      -1.763  -0.912   0.584  1.00  0.00     0.172 A 
ATOM     18  C   UNL     1       0.285  -1.779  -0.431  1.00  0.00    -0.032 A 
ATOM     19  C   UNL     1      -2.288  -2.205   0.689  1.00  0.00     0.203 A 
ATOM     20  C   UNL     1      -0.247  -3.078  -0.261  1.00  0.00     0.054 A 
ATOM     21  C   UNL     1      -1.504  -3.278   0.292  1.00  0.00     0.161 A 
BRANCH  17  22
ATOM     22  O   UNL     1      -2.490   0.158   1.066  1.00  0.00    -0.492 OA
ATOM     23  C   UNL     1      -2.303   0.278   2.477  1.00  0.00     0.278 C 
ENDBRANCH  17  22
BRANCH  18  24
ATOM     24  C   UNL     1       1.637  -1.725  -1.123  1.00  0.00     0.040 CG0
ATOM     25  G   UNL     1       2.690  -0.638  -0.819  1.00  0.00     0.000 G0
ENDBRANCH  18  24
BRANCH  19  26
ATOM     26  O   UNL     1      -3.522  -2.518   1.205  1.00  0.00    -0.490 OA
ATOM     27  C   UNL     1      -4.579  -1.786   0.580  1.00  0.00     0.278 C 
ENDBRANCH  19  26
BRANCH  21  28
ATOM     28  O   UNL     1      -1.960  -4.561   0.425  1.00  0.00    -0.504 OA
ATOM     29  H   UNL     1      -2.834  -4.476   0.853  1.00  0.00     0.293 HD
ENDBRANCH  21  28
ENDBRANCH   1  16
BRANCH   2  30
ATOM     30  O   UNL     1      -1.657   1.135  -1.846  1.00  0.00    -0.492 OA
ATOM     31  C   UNL     1      -2.802   1.966  -2.002  1.00  0.00     0.278 C 
ENDBRANCH   2  30
TORSDOF 4
