REMARK SMILES C1=C2CCCN[C@H]2[C@@H]2C[C@H]1[C@H]1CCCCN1C2
REMARK SMILES IDX 13 1 14 2 15 3 16 4 17 5 8 6 9 7 10 8 11 9 12 10 1 11 2 12
REMARK SMILES IDX 7 13 6 14 5 15 4 16 3 17
REMARK H PARENT 6 18
ROOT
ATOM      1  C   UNL     1      -4.139  -0.317   0.406  1.00  0.00     0.003 C 
ATOM      2  C   UNL     1      -3.791   0.293  -0.946  1.00  0.00     0.016 C 
ATOM      3  C   UNL     1      -2.560   1.207  -0.854  1.00  0.00     0.085 C 
ATOM      4  N   UNL     1      -1.627   0.812   0.208  1.00  0.00    -0.299 NA
ATOM      5  C   UNL     1      -0.289   1.387   0.011  1.00  0.00     0.090 C 
ATOM      6  C   UNL     1       0.672   1.100   1.206  1.00  0.00     0.025 C 
ATOM      7  C   UNL     1       0.048   0.075   2.170  1.00  0.00     0.016 C 
ATOM      8  C   UNL     1      -0.412  -1.111   1.311  1.00  0.00     0.029 C 
ATOM      9  C   UNL     1      -1.590  -0.652   0.396  1.00  0.00     0.063 C 
ATOM     10  C   UNL     1      -2.944  -1.063   1.014  1.00  0.00     0.020 C 
ATOM     11  C   UNL     1       0.758  -1.633   0.488  1.00  0.00    -0.021 C 
ATOM     12  C   UNL     1       1.876  -0.917   0.247  1.00  0.00    -0.057 C 
ATOM     13  C   UNL     1       2.034   0.518   0.730  1.00  0.00     0.084 C 
ATOM     14  N   UNL     1       2.628   1.400  -0.283  1.00  0.00    -0.310 NA
ATOM     15  C   UNL     1       3.862   0.856  -0.843  1.00  0.00     0.082 C 
ATOM     16  C   UNL     1       3.607  -0.495  -1.503  1.00  0.00     0.020 C 
ATOM     17  C   UNL     1       3.052  -1.493  -0.494  1.00  0.00     0.033 C 
ATOM     18  H   UNL     1       2.818   2.308   0.138  1.00  0.00     0.123 HD
ENDROOT
TORSDOF 0
