REMARK SMILES COc1cc([C@@H]2[C@H]3CO[C@@]4(O)C(=O)[C@@H]2C=C([C@H]2Oc5cc(O)cc(O)c5C(=O)[C@@H]2O)[C@@H]34)ccc1O
REMARK SMILES IDX 6 1 7 2 8 3 9 4 10 5 31 6 16 7 15 8 14 9 12 10 13 11 5 12
REMARK SMILES IDX 3 13 34 14 4 15 33 16 32 17 2 18 1 19 35 20 11 22 17 24
REMARK SMILES IDX 29 25 18 26 27 27 19 28 28 29 26 30 20 31 24 32 21 33 23 34
REMARK SMILES IDX 30 35 25 37 22 39
REMARK H PARENT 35 21 11 23 30 36 25 38 22 40
ROOT
ATOM      1  C   UNL     1       2.368  -0.695   0.127  1.00  0.00     0.040 C 
ATOM      2  C   UNL     1       1.357  -1.494  -0.786  1.00  0.00     0.037 C 
ATOM      3  C   UNL     1       1.803  -2.947  -0.901  1.00  0.00     0.169 C 
ATOM      4  O   UNL     1       1.513  -3.539   0.375  1.00  0.00    -0.343 OA
ATOM      5  C   UNL     1       0.567  -2.692   1.050  1.00  0.00     0.234 C 
ATOM      6  C   UNL     1       0.032  -1.714  -0.030  1.00  0.00     0.092 C 
ATOM      7  C   UNL     1      -0.500  -0.413   0.554  1.00  0.00    -0.021 C 
ATOM      8  C   UNL     1       0.373   0.221   1.362  1.00  0.00    -0.011 C 
ATOM      9  C   UNL     1       1.722  -0.442   1.519  1.00  0.00     0.093 C 
ATOM     10  C   UNL     1       1.357  -1.820   2.074  1.00  0.00     0.199 C 
ATOM     11  O   UNL     1       1.618  -2.186   3.219  1.00  0.00    -0.293 OA
ENDROOT
BRANCH   1  12
ATOM     12  C   UNL     1       2.909   0.584  -0.500  1.00  0.00    -0.040 A 
ATOM     13  C   UNL     1       4.821   2.048  -0.917  1.00  0.00     0.160 A 
ATOM     14  C   UNL     1       3.971   2.927  -1.593  1.00  0.00     0.157 A 
ATOM     15  C   UNL     1       4.283   0.880  -0.370  1.00  0.00     0.054 A 
ATOM     16  C   UNL     1       2.616   2.665  -1.726  1.00  0.00     0.050 A 
ATOM     17  C   UNL     1       2.085   1.497  -1.178  1.00  0.00     0.008 A 
BRANCH  13  18
ATOM     18  O   UNL     1       6.133   2.441  -0.860  1.00  0.00    -0.493 OA
ATOM     19  C   UNL     1       7.030   1.581  -0.166  1.00  0.00     0.278 C 
ENDBRANCH  13  18
BRANCH  14  20
ATOM     20  O   UNL     1       4.465   4.080  -2.140  1.00  0.00    -0.504 OA
ATOM     21  H   UNL     1       5.418   4.069  -1.930  1.00  0.00     0.293 HD
ENDBRANCH  14  20
ENDBRANCH   1  12
BRANCH   5  22
ATOM     22  O   UNL     1      -0.454  -3.474   1.610  1.00  0.00    -0.359 OA
ATOM     23  H   UNL     1      -0.067  -3.833   2.429  1.00  0.00     0.214 HD
ENDBRANCH   5  22
BRANCH   7  24
ATOM     24  C   UNL     1      -1.906   0.008   0.177  1.00  0.00     0.236 C 
ATOM     25  C   UNL     1      -2.330   1.411   0.635  1.00  0.00     0.231 C 
ATOM     26  O   UNL     1      -2.769  -0.994   0.739  1.00  0.00    -0.482 OA
ATOM     27  C   UNL     1      -3.772   1.630   0.215  1.00  0.00     0.202 C 
ATOM     28  C   UNL     1      -4.096  -0.796   0.481  1.00  0.00     0.138 A 
ATOM     29  O   UNL     1      -4.218   2.742  -0.072  1.00  0.00    -0.291 OA
ATOM     30  C   UNL     1      -4.652   0.452   0.200  1.00  0.00     0.105 A 
ATOM     31  C   UNL     1      -4.915  -1.922   0.540  1.00  0.00     0.093 A 
ATOM     32  C   UNL     1      -6.023   0.565  -0.058  1.00  0.00     0.133 A 
ATOM     33  C   UNL     1      -6.278  -1.797   0.285  1.00  0.00     0.123 A 
ATOM     34  C   UNL     1      -6.841  -0.561  -0.020  1.00  0.00     0.093 A 
BRANCH  25  35
ATOM     35  O   UNL     1      -1.524   2.424   0.028  1.00  0.00    -0.381 OA
ATOM     36  H   UNL     1      -2.027   3.260   0.108  1.00  0.00     0.211 HD
ENDBRANCH  25  35
BRANCH  32  37
ATOM     37  O   UNL     1      -6.633   1.756  -0.350  1.00  0.00    -0.507 OA
ATOM     38  H   UNL     1      -5.950   2.464  -0.352  1.00  0.00     0.293 HD
ENDBRANCH  32  37
BRANCH  33  39
ATOM     39  O   UNL     1      -7.040  -2.927   0.343  1.00  0.00    -0.508 OA
ATOM     40  H   UNL     1      -7.965  -2.695   0.155  1.00  0.00     0.293 HD
ENDBRANCH  33  39
ENDBRANCH   7  24
TORSDOF 8
