REMARK SMILES Cc1cccc2c3c(ccc12)C(O)=C(C(C)CO)C(=O)C3=O
REMARK SMILES IDX 15 1 16 2 14 3 2 4 11 5 3 6 10 7 6 8 4 9 9 10 7 11 5 12 8 13
REMARK SMILES IDX 21 14 12 15 22 16 19 17 20 18 1 19 13 20 17 22 18 23
REMARK H PARENT 13 21 18 24
ROOT
ATOM      1  C   UNL     1       3.794   0.360  -0.434  1.00  0.00     0.050 C 
ATOM      2  C   UNL     1       4.218   0.203  -1.901  1.00  0.00     0.015 C 
ENDROOT
BRANCH   1   3
ATOM      3  C   UNL     1       2.292   0.357  -0.205  1.00  0.00     0.051 C 
ATOM      4  C   UNL     1      -4.253  -0.301   0.510  1.00  0.00    -0.043 A 
ATOM      5  C   UNL     1      -2.867  -0.320   0.185  1.00  0.00    -0.015 A 
ATOM      6  C   UNL     1      -4.766   0.702   1.343  1.00  0.00     0.004 A 
ATOM      7  C   UNL     1      -2.317  -1.315  -0.643  1.00  0.00     0.010 A 
ATOM      8  C   UNL     1      -1.999   0.682   0.694  1.00  0.00    -0.006 A 
ATOM      9  C   UNL     1      -3.929   1.678   1.858  1.00  0.00     0.001 A 
ATOM     10  C   UNL     1      -0.955  -1.362  -0.950  1.00  0.00     0.013 A 
ATOM     11  C   UNL     1      -0.611   0.630   0.342  1.00  0.00     0.045 A 
ATOM     12  C   UNL     1      -2.572   1.665   1.541  1.00  0.00     0.009 A 
ATOM     13  C   UNL     1      -0.068  -0.410  -0.441  1.00  0.00     0.029 A 
ATOM     14  C   UNL     1       0.335   1.705   0.730  1.00  0.00     0.234 C 
ATOM     15  C   UNL     1       1.384  -0.471  -0.748  1.00  0.00     0.131 C 
ATOM     16  O   UNL     1       0.005   2.861   0.949  1.00  0.00    -0.285 OA
ATOM     17  C   UNL     1       1.801   1.345   0.786  1.00  0.00     0.233 C 
ATOM     18  O   UNL     1       2.533   1.848   1.627  1.00  0.00    -0.285 OA
ATOM     19  C   UNL     1      -5.215  -1.337  -0.016  1.00  0.00     0.045 C 
BRANCH  15  20
ATOM     20  O   UNL     1       1.808  -1.483  -1.588  1.00  0.00    -0.507 OA
ATOM     21  H   UNL     1       1.389  -2.317  -1.317  1.00  0.00     0.293 HD
ENDBRANCH  15  20
ENDBRANCH   1   3
BRANCH   1  22
ATOM     22  C   UNL     1       4.482  -0.681   0.463  1.00  0.00     0.164 C 
BRANCH  22  23
ATOM     23  O   UNL     1       5.897  -0.526   0.434  1.00  0.00    -0.396 OA
ATOM     24  H   UNL     1       6.100   0.337   0.838  1.00  0.00     0.210 HD
ENDBRANCH  22  23
ENDBRANCH   1  22
TORSDOF 4
