REMARK SMILES Oc1ccc2c(c1)OC[C@H]1c3cc4c(cc3O[C@@H]21)OCO4
REMARK SMILES IDX 1 1 2 3 9 4 10 5 8 6 18 7 11 8 6 9 5 10 17 11 12 12 16 13
REMARK SMILES IDX 7 14 4 15 13 16 15 17 3 18 14 19 21 20 19 21 20 22
REMARK H PARENT 1 2
ROOT
ATOM      1  O   UNL     1      -5.149  -0.263   1.587  1.00  0.00    -0.508 OA
ATOM      2  H   UNL     1      -5.147   0.528   2.152  1.00  0.00     0.293 HD
ENDROOT
BRANCH   1   3
ATOM      3  C   UNL     1      -4.048  -0.222   0.784  1.00  0.00     0.119 A 
ATOM      4  C   UNL     1      -0.452   2.188  -1.111  1.00  0.00     0.242 C 
ATOM      5  C   UNL     1       0.329   0.978  -1.587  1.00  0.00     0.106 C 
ATOM      6  O   UNL     1      -1.237   1.948   0.058  1.00  0.00    -0.492 OA
ATOM      7  C   UNL     1      -0.575  -0.250  -1.758  1.00  0.00     0.218 C 
ATOM      8  C   UNL     1       1.349   0.411  -0.661  1.00  0.00     0.009 A 
ATOM      9  C   UNL     1      -2.059   0.858  -0.034  1.00  0.00     0.129 A 
ATOM     10  C   UNL     1      -1.806  -0.224  -0.883  1.00  0.00     0.035 A 
ATOM     11  O   UNL     1       0.210  -1.439  -1.467  1.00  0.00    -0.484 OA
ATOM     12  C   UNL     1       2.334   1.043   0.084  1.00  0.00     0.058 A 
ATOM     13  C   UNL     1       1.236  -0.983  -0.677  1.00  0.00     0.128 A 
ATOM     14  C   UNL     1      -3.168   0.854   0.813  1.00  0.00     0.093 A 
ATOM     15  C   UNL     1      -2.707  -1.301  -0.899  1.00  0.00     0.015 A 
ATOM     16  C   UNL     1       3.175   0.213   0.801  1.00  0.00     0.166 A 
ATOM     17  C   UNL     1       2.087  -1.809   0.033  1.00  0.00     0.097 A 
ATOM     18  C   UNL     1      -3.829  -1.296  -0.069  1.00  0.00     0.047 A 
ATOM     19  C   UNL     1       3.056  -1.166   0.775  1.00  0.00     0.169 A 
ATOM     20  O   UNL     1       4.202   0.627   1.592  1.00  0.00    -0.454 OA
ATOM     21  O   UNL     1       3.993  -1.778   1.550  1.00  0.00    -0.453 OA
ATOM     22  C   UNL     1       4.704  -0.637   2.073  1.00  0.00     0.468 C 
ENDBRANCH   1   3
TORSDOF 1
