REMARK SMILES Cc1coc2c1C(=O)C(=O)c1c-2ccc2c1CC[C@H](O)[C@]2(C)O
REMARK SMILES IDX 1 1 2 2 3 3 4 4 5 5 6 6 7 7 8 8 9 9 10 10 11 11 12 12 13 13
REMARK SMILES IDX 14 14 15 15 16 16 17 17 18 18 19 19 21 20 22 21 23 22 20 24
REMARK H PARENT 23 23 20 25
ROOT
ATOM      1  C   UNL     1       6.087  -0.350   0.498  1.00  0.00     0.048 C 
ATOM      2  C   UNL     1       4.731   0.009   0.979  1.00  0.00    -0.001 A 
ATOM      3  C   UNL     1       4.396   0.646   2.161  1.00  0.00     0.200 A 
ATOM      4  O   UNL     1       3.048   0.816   2.264  1.00  0.00    -0.463 OA
ATOM      5  C   UNL     1       2.516   0.280   1.140  1.00  0.00     0.146 A 
ATOM      6  C   UNL     1       3.492  -0.228   0.326  1.00  0.00     0.075 A 
ATOM      7  C   UNL     1       3.107  -0.835  -0.923  1.00  0.00     0.237 C 
ATOM      8  O   UNL     1       3.927  -1.225  -1.744  1.00  0.00    -0.285 OA
ATOM      9  C   UNL     1       1.593  -0.983  -1.197  1.00  0.00     0.234 C 
ATOM     10  O   UNL     1       1.235  -1.703  -2.119  1.00  0.00    -0.285 OA
ATOM     11  C   UNL     1       0.601  -0.278  -0.290  1.00  0.00     0.041 A 
ATOM     12  C   UNL     1       1.091   0.308   0.902  1.00  0.00     0.030 A 
ATOM     13  C   UNL     1       0.214   0.910   1.800  1.00  0.00     0.013 A 
ATOM     14  C   UNL     1      -1.153   0.918   1.538  1.00  0.00     0.008 A 
ATOM     15  C   UNL     1      -1.683   0.338   0.369  1.00  0.00    -0.010 A 
ATOM     16  C   UNL     1      -0.791  -0.221  -0.586  1.00  0.00    -0.030 A 
ATOM     17  C   UNL     1      -1.329  -0.764  -1.897  1.00  0.00     0.039 C 
ATOM     18  C   UNL     1      -2.734  -0.295  -2.245  1.00  0.00     0.040 C 
ATOM     19  C   UNL     1      -3.654  -0.498  -1.055  1.00  0.00     0.150 C 
ATOM     20  C   UNL     1      -3.197   0.379   0.142  1.00  0.00     0.113 C 
ATOM     21  C   UNL     1      -4.010  -0.030   1.383  1.00  0.00     0.050 C 
ENDROOT
BRANCH  20  22
ATOM     22  O   UNL     1      -3.574   1.738  -0.168  1.00  0.00    -0.383 OA
ATOM     23  H   UNL     1      -2.761   2.246  -0.335  1.00  0.00     0.211 HD
ENDBRANCH  20  22
BRANCH  19  24
ATOM     24  O   UNL     1      -4.982  -0.140  -1.459  1.00  0.00    -0.390 OA
ATOM     25  H   UNL     1      -5.046   0.826  -1.307  1.00  0.00     0.211 HD
ENDBRANCH  19  24
TORSDOF 2
