REMARK SMILES COc1cc2c(c(OC)c1OC)-c1c(cc(O)c(OC)c1OC)C[C@H](C)[C@H](C)C2
REMARK SMILES IDX 6 1 7 2 10 3 3 4 4 5 5 6 29 7 27 8 28 9 25 10 26 11 13 13
REMARK SMILES IDX 21 14 14 15 18 16 15 17 16 18 22 19 23 20 24 21 19 23 20 24
REMARK SMILES IDX 17 25 2 27 1 28 8 29 9 30 11 31 12 32
REMARK H PARENT 17 26
REMARK Flexibility Score:    8.900
ROOT
ATOM      1  C   UNL     1      -0.275   0.107   0.472  1.00  0.00     0.035 A 
ATOM      2  C   UNL     1      -0.804  -0.310   1.721  1.00  0.00     0.172 A 
ATOM      3  C   UNL     1      -1.126   0.610   2.730  1.00  0.00     0.203 A 
ATOM      4  C   UNL     1      -0.850   1.966   2.561  1.00  0.00     0.164 A 
ATOM      5  C   UNL     1      -0.286   2.384   1.354  1.00  0.00     0.055 A 
ATOM      6  C   UNL     1       0.024   1.479   0.302  1.00  0.00    -0.032 A 
ENDROOT
BRANCH   6   7
ATOM      7  C   UNL     1       0.586   2.125  -0.955  1.00  0.00     0.040 C 
BRANCH   7   8
ATOM      8  C   UNL     1       1.576   1.404  -1.896  1.00  0.00    -0.007 C 
ATOM      9  C   UNL     1       2.029   2.398  -2.984  1.00  0.00     0.008 C 
BRANCH   8  10
ATOM     10  C   UNL     1       2.812   0.728  -1.224  1.00  0.00    -0.007 CG0
ATOM     11  C   UNL     1       3.687   1.707  -0.432  1.00  0.00     0.008 C 
ATOM     12  G   UNL     1       2.485  -0.493  -0.331  1.00  0.00     0.000 G0
ENDBRANCH   8  10
ENDBRANCH   7   8
ENDBRANCH   6   7
BRANCH   1  13
ATOM     13  C   UNL     1      -0.007  -0.922  -0.559  1.00  0.00     0.035 A 
ATOM     14  C   UNL     1      -1.061  -1.585  -1.223  1.00  0.00     0.172 A 
ATOM     15  C   UNL     1       1.325  -1.297  -0.871  1.00  0.00    -0.032 A 
ATOM     16  C   UNL     1      -0.802  -2.649  -2.099  1.00  0.00     0.203 A 
ATOM     17  C   UNL     1       1.575  -2.340  -1.781  1.00  0.00     0.054 A 
ATOM     18  C   UNL     1       0.514  -3.014  -2.381  1.00  0.00     0.161 A 
BRANCH  14  19
ATOM     19  O   UNL     1      -2.361  -1.212  -0.961  1.00  0.00    -0.492 OA
ATOM     20  C   UNL     1      -2.855  -0.383  -2.012  1.00  0.00     0.278 C 
ENDBRANCH  14  19
BRANCH  15  21
ATOM     21  C   UNL     1       2.485  -0.493  -0.331  1.00  0.00     0.040 CG0
ATOM     22  G   UNL     1       2.812   0.728  -1.224  1.00  0.00     0.000 G0
ENDBRANCH  15  21
BRANCH  16  23
ATOM     23  O   UNL     1      -1.836  -3.299  -2.728  1.00  0.00    -0.490 OA
ATOM     24  C   UNL     1      -2.309  -4.357  -1.895  1.00  0.00     0.278 C 
ENDBRANCH  16  23
BRANCH  18  25
ATOM     25  O   UNL     1       0.754  -4.037  -3.256  1.00  0.00    -0.504 OA
ATOM     26  H   UNL     1       1.712  -4.136  -3.374  1.00  0.00     0.293 HD
ENDBRANCH  18  25
ENDBRANCH   1  13
BRANCH   4  27
ATOM     27  O   UNL     1      -1.177   2.789   3.606  1.00  0.00    -0.493 OA
ATOM     28  C   UNL     1      -0.825   4.161   3.498  1.00  0.00     0.278 C 
ENDBRANCH   4  27
BRANCH   2  29
ATOM     29  O   UNL     1      -1.051  -1.653   1.929  1.00  0.00    -0.492 OA
ATOM     30  C   UNL     1      -0.030  -2.226   2.745  1.00  0.00     0.278 C 
ENDBRANCH   2  29
BRANCH   3  31
ATOM     31  O   UNL     1      -1.663   0.173   3.919  1.00  0.00    -0.490 OA
ATOM     32  C   UNL     1      -3.080   0.059   3.790  1.00  0.00     0.278 C 
ENDBRANCH   3  31
TORSDOF 6
