REMARK SMILES O=C1C=CC[C@@H]2[C@H]3CCC[N+]4([O-])CCC[C@@H](CN12)[C@@H]34
REMARK SMILES IDX 14 1 15 2 16 3 17 4 18 5 6 6 5 7 4 8 3 9 2 10 1 11 7 12
REMARK SMILES IDX 19 13 11 14 13 15 10 16 9 17 8 18 12 19
REMARK H PARENT
ROOT
ATOM      1  C   UNL     1      -2.687  -1.824   1.018  1.00  0.00     0.062 C 
ATOM      2  C   UNL     1      -1.618  -2.270   0.030  1.00  0.00     0.017 C 
ATOM      3  C   UNL     1      -0.353  -1.406   0.146  1.00  0.00     0.068 C 
ATOM      4  C   UNL     1       0.486  -1.462  -1.122  1.00  0.00     0.130 C 
ATOM      5  N   UNL     1       1.780  -0.873  -0.821  1.00  0.00    -0.335 N 
ATOM      6  C   UNL     1       1.825   0.492  -0.301  1.00  0.00     0.098 C 
ATOM      7  C   UNL     1       2.862   0.590   0.836  1.00  0.00     0.053 C 
ATOM      8  C   UNL     1       4.156  -0.037   0.411  1.00  0.00    -0.019 C 
ATOM      9  C   UNL     1       4.192  -1.001  -0.520  1.00  0.00     0.067 C 
ATOM     10  C   UNL     1       2.942  -1.578  -1.088  1.00  0.00     0.246 C 
ATOM     11  O   UNL     1       2.999  -2.641  -1.695  1.00  0.00    -0.270 OA
ATOM     12  C   UNL     1       0.458   1.090   0.136  1.00  0.00     0.071 C 
ATOM     13  C   UNL     1      -0.633   0.058   0.535  1.00  0.00     0.195 C 
ATOM     14  N   UNL     1      -2.047   0.466   0.095  1.00  0.00    -0.359 N 
ATOM     15  C   UNL     1      -3.062  -0.348   0.881  1.00  0.00     0.264 C 
ATOM     16  C   UNL     1      -2.249   1.936   0.371  1.00  0.00     0.264 C 
ATOM     17  C   UNL     1      -1.326   2.805  -0.476  1.00  0.00     0.062 C 
ATOM     18  C   UNL     1      -0.040   2.102  -0.910  1.00  0.00     0.018 C 
ATOM     19  O   UNL     1      -2.254   0.246  -1.245  1.00  0.00    -0.633 OA
ENDROOT
TORSDOF 0
