REMARK SMILES C=C(C)[C@H](CC=C(C)C)Cc1c(O)cc(O)c2c1O[C@H](c1ccc(O)cc1O)CC2=O
REMARK SMILES IDX 10 1 4 2 5 3 6 4 7 5 8 6 9 7 2 8 1 9 3 10 11 11 18 12 12 13
REMARK SMILES IDX 17 14 19 15 14 16 15 17 30 18 20 19 31 20 29 21 13 22 16 24
REMARK SMILES IDX 21 26 27 27 22 28 26 29 23 30 24 31 28 32 25 34
REMARK H PARENT 13 23 16 25 28 33 25 35
ROOT
ATOM      1  C   UNL     1       0.879   0.274  -1.422  1.00  0.00     0.051 C 
ENDROOT
BRANCH   1   2
ATOM      2  C   UNL     1       1.932   0.365  -0.286  1.00  0.00     0.022 C 
BRANCH   2   3
ATOM      3  C   UNL     1       2.542   1.789  -0.271  1.00  0.00     0.035 C 
BRANCH   3   4
ATOM      4  C   UNL     1       3.704   1.936   0.680  1.00  0.00    -0.028 C 
ATOM      5  C   UNL     1       5.017   1.882   0.385  1.00  0.00    -0.080 C 
ATOM      6  C   UNL     1       6.054   2.079   1.460  1.00  0.00     0.039 C 
ATOM      7  C   UNL     1       5.583   1.611  -0.982  1.00  0.00     0.039 C 
ENDBRANCH   3   4
ENDBRANCH   2   3
BRANCH   2   8
ATOM      8  C   UNL     1       1.379  -0.050   1.080  1.00  0.00    -0.077 C 
ATOM      9  C   UNL     1       0.355   0.578   1.685  1.00  0.00     0.008 C 
ATOM     10  C   UNL     1       2.052  -1.231   1.723  1.00  0.00     0.039 C 
ENDBRANCH   2   8
ENDBRANCH   1   2
BRANCH   1  11
ATOM     11  C   UNL     1       0.333  -1.122  -1.654  1.00  0.00     0.038 A 
ATOM     12  C   UNL     1      -0.974  -1.471  -1.265  1.00  0.00     0.141 A 
ATOM     13  C   UNL     1       1.129  -2.104  -2.267  1.00  0.00     0.126 A 
ATOM     14  C   UNL     1      -1.437  -2.781  -1.443  1.00  0.00     0.102 A 
ATOM     15  O   UNL     1      -1.750  -0.491  -0.697  1.00  0.00    -0.484 OA
ATOM     16  C   UNL     1       0.663  -3.402  -2.469  1.00  0.00     0.093 A 
ATOM     17  C   UNL     1      -0.618  -3.739  -2.049  1.00  0.00     0.133 A 
ATOM     18  C   UNL     1      -2.787  -3.133  -0.957  1.00  0.00     0.174 C 
ATOM     19  C   UNL     1      -3.159  -0.731  -0.816  1.00  0.00     0.215 C 
ATOM     20  O   UNL     1      -3.225  -4.269  -1.130  1.00  0.00    -0.294 OA
ATOM     21  C   UNL     1      -3.541  -2.074  -0.209  1.00  0.00     0.131 C 
BRANCH  13  22
ATOM     22  O   UNL     1       2.389  -1.767  -2.681  1.00  0.00    -0.507 OA
ATOM     23  H   UNL     1       2.819  -2.554  -3.056  1.00  0.00     0.293 HD
ENDBRANCH  13  22
BRANCH  17  24
ATOM     24  O   UNL     1      -1.011  -5.034  -2.262  1.00  0.00    -0.507 OA
ATOM     25  H   UNL     1      -1.923  -5.138  -1.906  1.00  0.00     0.293 HD
ENDBRANCH  17  24
BRANCH  19  26
ATOM     26  C   UNL     1      -3.902   0.445  -0.207  1.00  0.00     0.035 A 
ATOM     27  C   UNL     1      -3.857   0.756   1.159  1.00  0.00     0.126 A 
ATOM     28  C   UNL     1      -4.655   1.285  -1.050  1.00  0.00     0.015 A 
ATOM     29  C   UNL     1      -4.545   1.856   1.675  1.00  0.00     0.092 A 
ATOM     30  C   UNL     1      -5.346   2.389  -0.541  1.00  0.00     0.047 A 
ATOM     31  C   UNL     1      -5.284   2.662   0.819  1.00  0.00     0.119 A 
BRANCH  27  32
ATOM     32  O   UNL     1      -3.126  -0.031   2.003  1.00  0.00    -0.507 OA
ATOM     33  H   UNL     1      -3.119   0.378   2.885  1.00  0.00     0.293 HD
ENDBRANCH  27  32
BRANCH  31  34
ATOM     34  O   UNL     1      -5.941   3.727   1.361  1.00  0.00    -0.508 OA
ATOM     35  H   UNL     1      -6.404   4.202   0.651  1.00  0.00     0.293 HD
ENDBRANCH  31  34
ENDBRANCH  19  26
ENDBRANCH   1  11
TORSDOF 10
