REMARK SMILES C[C@@H](CO)C1=C(O)c2ccc3c(c2C(=O)C1=O)CCCC3(C)C
REMARK SMILES IDX 1 1 2 2 3 3 4 4 5 6 6 7 16 8 8 9 14 10 17 11 13 12 9 13
REMARK SMILES IDX 15 14 12 15 10 16 11 17 18 18 21 19 19 20 20 21 22 22 23 23
REMARK SMILES IDX 7 24
REMARK H PARENT 4 5 7 25
ROOT
ATOM      1  C   UNL     1       5.020  -0.932   1.324  1.00  0.00     0.015 C 
ATOM      2  C   UNL     1       4.578  -0.113   0.105  1.00  0.00     0.050 C 
ENDROOT
BRANCH   2   3
ATOM      3  C   UNL     1       5.272  -0.671  -1.151  1.00  0.00     0.164 C 
BRANCH   3   4
ATOM      4  O   UNL     1       4.905   0.061  -2.315  1.00  0.00    -0.396 OA
ATOM      5  H   UNL     1       4.015  -0.249  -2.556  1.00  0.00     0.210 HD
ENDBRANCH   3   4
ENDBRANCH   2   3
BRANCH   2   6
ATOM      6  C   UNL     1       3.059  -0.009   0.072  1.00  0.00     0.051 C 
ATOM      7  C   UNL     1       2.177  -0.764  -0.609  1.00  0.00     0.131 C 
ATOM      8  C   UNL     1       2.492   1.113   0.872  1.00  0.00     0.233 C 
ATOM      9  C   UNL     1       0.706  -0.600  -0.474  1.00  0.00     0.028 A 
ATOM     10  C   UNL     1       1.133   1.626   0.436  1.00  0.00     0.234 C 
ATOM     11  O   UNL     1       3.073   1.624   1.818  1.00  0.00    -0.285 OA
ATOM     12  C   UNL     1       0.155   0.594   0.025  1.00  0.00     0.040 A 
ATOM     13  C   UNL     1      -0.174  -1.629  -0.818  1.00  0.00     0.013 A 
ATOM     14  O   UNL     1       0.908   2.825   0.406  1.00  0.00    -0.285 OA
ATOM     15  C   UNL     1      -1.248   0.789   0.138  1.00  0.00    -0.032 A 
ATOM     16  C   UNL     1      -1.556  -1.447  -0.737  1.00  0.00     0.005 A 
ATOM     17  C   UNL     1      -2.120  -0.238  -0.292  1.00  0.00    -0.038 A 
ATOM     18  C   UNL     1      -1.794   2.087   0.698  1.00  0.00     0.036 C 
ATOM     19  C   UNL     1      -3.649  -0.092  -0.234  1.00  0.00    -0.010 C 
ATOM     20  C   UNL     1      -3.258   2.027   1.109  1.00  0.00     0.006 C 
ATOM     21  C   UNL     1      -4.076   1.376   0.009  1.00  0.00     0.011 C 
ATOM     22  C   UNL     1      -4.311  -0.530  -1.562  1.00  0.00     0.016 C 
ATOM     23  C   UNL     1      -4.194  -0.988   0.901  1.00  0.00     0.016 C 
BRANCH   7  24
ATOM     24  O   UNL     1       2.620  -1.749  -1.470  1.00  0.00    -0.507 OA
ATOM     25  H   UNL     1       1.920  -1.960  -2.113  1.00  0.00     0.293 HD
ENDBRANCH   7  24
ENDBRANCH   2   6
TORSDOF 4
