REMARK SMILES C[C@]12CCC[C@@]3(COC1=O)[C@@H]1CC[C@@H]4C[C@@]1(CC[C@@H]32)C[C@@]4(C)O
REMARK SMILES IDX 1 1 2 2 3 3 4 4 5 5 6 6 19 7 18 8 17 9 16 10 11 11 12 12
REMARK SMILES IDX 13 13 14 14 15 15 21 16 20 17 22 18 7 19 8 20 9 21 10 22
REMARK SMILES IDX 23 23
REMARK H PARENT 23 24
ROOT
ATOM      1  C   UNL     1      -3.971   1.727  -0.354  1.00  0.00     0.024 C 
ATOM      2  C   UNL     1      -3.164   0.510   0.138  1.00  0.00     0.069 C 
ATOM      3  C   UNL     1      -3.815  -0.786  -0.426  1.00  0.00     0.019 C 
ATOM      4  C   UNL     1      -2.951  -1.475  -1.467  1.00  0.00     0.002 C 
ATOM      5  C   UNL     1      -1.531  -1.746  -0.972  1.00  0.00     0.011 C 
ATOM      6  C   UNL     1      -0.976  -0.690   0.048  1.00  0.00     0.012 C 
ATOM      7  C   UNL     1      -1.664   0.660  -0.244  1.00  0.00     0.016 C 
ATOM      8  C   UNL     1      -0.965   1.886   0.393  1.00  0.00     0.006 C 
ATOM      9  C   UNL     1       0.238   1.557   1.266  1.00  0.00     0.008 C 
ATOM     10  C   UNL     1       1.247   0.641   0.570  1.00  0.00    -0.023 C 
ATOM     11  C   UNL     1       0.577  -0.567  -0.180  1.00  0.00     0.005 C 
ATOM     12  C   UNL     1       1.332  -1.898   0.047  1.00  0.00     0.005 C 
ATOM     13  C   UNL     1       2.858  -1.760   0.042  1.00  0.00     0.007 C 
ATOM     14  C   UNL     1       3.368  -0.414   0.577  1.00  0.00     0.021 C 
ATOM     15  C   UNL     1       2.334   0.161   1.550  1.00  0.00     0.014 C 
ATOM     16  C   UNL     1       3.478   0.722  -0.475  1.00  0.00     0.065 C 
ATOM     17  C   UNL     1       2.115   1.443  -0.444  1.00  0.00     0.042 C 
ATOM     18  C   UNL     1       3.895   0.321  -1.884  1.00  0.00     0.042 C 
ATOM     19  C   UNL     1      -1.328  -1.163   1.492  1.00  0.00     0.240 C 
ATOM     20  O   UNL     1      -2.298  -0.380   2.226  1.00  0.00    -0.465 OA
ATOM     21  C   UNL     1      -3.239   0.404   1.651  1.00  0.00     0.312 C 
ATOM     22  O   UNL     1      -4.097   0.960   2.327  1.00  0.00    -0.252 OA
ENDROOT
BRANCH  16  23
ATOM     23  O   UNL     1       4.456   1.661  -0.001  1.00  0.00    -0.390 OA
ATOM     24  H   UNL     1       5.320   1.214   0.007  1.00  0.00     0.211 HD
ENDBRANCH  16  23
TORSDOF 1
