REMARK SMILES CC(C)c1ccc2c(c1O)CC[C@H]1C3=C(CC[C@]21C)C(=O)OC3
REMARK SMILES IDX 4 1 9 2 8 3 7 4 6 5 5 6 18 7 17 8 16 9 15 10 14 11 13 12
REMARK SMILES IDX 12 13 11 14 23 15 22 16 20 17 21 18 19 19 2 20 1 21 3 22
REMARK SMILES IDX 10 23
REMARK H PARENT 10 24
ROOT
ATOM      1  C   UNL     1       3.040   0.488  -0.082  1.00  0.00    -0.003 A 
ATOM      2  C   UNL     1       2.280  -0.692  -0.094  1.00  0.00     0.122 A 
ATOM      3  C   UNL     1       0.876  -0.685   0.087  1.00  0.00    -0.002 A 
ATOM      4  C   UNL     1       0.208   0.554   0.252  1.00  0.00    -0.035 A 
ATOM      5  C   UNL     1       0.977   1.730   0.273  1.00  0.00     0.005 A 
ATOM      6  C   UNL     1       2.362   1.698   0.107  1.00  0.00     0.008 A 
ATOM      7  C   UNL     1      -1.312   0.614   0.491  1.00  0.00    -0.000 C 
ATOM      8  C   UNL     1      -2.003   1.876  -0.131  1.00  0.00     0.017 C 
ATOM      9  C   UNL     1      -3.531   1.916   0.082  1.00  0.00     0.044 C 
ATOM     10  C   UNL     1      -4.131   0.569  -0.026  1.00  0.00     0.040 C 
ATOM     11  C   UNL     1      -3.472  -0.582  -0.131  1.00  0.00    -0.019 C 
ATOM     12  C   UNL     1      -1.976  -0.648  -0.175  1.00  0.00     0.030 C 
ATOM     13  C   UNL     1      -1.376  -1.925   0.407  1.00  0.00     0.014 C 
ATOM     14  C   UNL     1       0.113  -1.996   0.073  1.00  0.00     0.040 C 
ATOM     15  C   UNL     1      -4.410  -1.708  -0.278  1.00  0.00     0.265 C 
ATOM     16  O   UNL     1      -5.700  -1.090  -0.228  1.00  0.00    -0.458 OA
ATOM     17  C   UNL     1      -5.557   0.257  -0.076  1.00  0.00     0.334 C 
ATOM     18  O   UNL     1      -6.461   1.067   0.001  1.00  0.00    -0.247 OA
ATOM     19  C   UNL     1      -1.502   0.657   2.032  1.00  0.00     0.017 C 
ENDROOT
BRANCH   1  20
ATOM     20  C   UNL     1       4.551   0.530  -0.261  1.00  0.00     0.017 C 
ATOM     21  C   UNL     1       4.993   0.034  -1.640  1.00  0.00     0.012 C 
ATOM     22  C   UNL     1       5.296  -0.196   0.863  1.00  0.00     0.012 C 
ENDBRANCH   1  20
BRANCH   2  23
ATOM     23  O   UNL     1       2.963  -1.865  -0.289  1.00  0.00    -0.507 OA
ATOM     24  H   UNL     1       2.347  -2.590  -0.463  1.00  0.00     0.293 HD
ENDBRANCH   2  23
TORSDOF 2
