REMARK SMILES C=C(CC[C@@H](C)[C@H]1CC[C@H]2C3=C(C(=O)C[C@]12C)[C@@]1(C)CCC(=O)[C@@H](C)[C@@H]1CC3=O)C(C)C(=O)O
REMARK SMILES IDX 2 1 1 2 3 3 4 4 5 5 6 6 7 7 24 8 26 9 22 10 27 11 18 12
REMARK SMILES IDX 21 13 23 14 28 15 12 16 20 17 29 18 11 19 13 20 10 21 14 22
REMARK SMILES IDX 15 23 16 24 9 25 8 26 25 27 19 28 17 29 30 30 31 31 32 32
REMARK SMILES IDX 33 33 34 34
REMARK H PARENT 34 35
ROOT
ATOM      1  C   UNL     1       6.607  -0.155  -0.564  1.00  0.00    -0.064 C 
ATOM      2  C   UNL     1       7.249   0.504  -1.548  1.00  0.00     0.008 C 
ENDROOT
BRANCH   1   3
ATOM      3  C   UNL     1       5.308  -0.881  -0.864  1.00  0.00     0.031 C 
BRANCH   3   4
ATOM      4  C   UNL     1       4.088  -0.279  -0.155  1.00  0.00     0.008 C 
BRANCH   4   5
ATOM      5  C   UNL     1       2.721  -0.763  -0.715  1.00  0.00    -0.010 C 
ATOM      6  C   UNL     1       2.593  -2.282  -0.560  1.00  0.00     0.008 C 
BRANCH   5   7
ATOM      7  C   UNL     1       1.556  -0.001  -0.016  1.00  0.00    -0.001 C 
ATOM      8  C   UNL     1      -6.463   0.748   0.532  1.00  0.00     0.057 C 
ATOM      9  C   UNL     1      -4.926   0.851   0.419  1.00  0.00     0.017 C 
ATOM     10  C   UNL     1      -6.776  -0.542   1.308  1.00  0.00     0.136 C 
ATOM     11  C   UNL     1      -4.386   2.201  -0.047  1.00  0.00     0.086 C 
ATOM     12  C   UNL     1      -4.315  -0.306  -0.445  1.00  0.00     0.001 C 
ATOM     13  C   UNL     1      -5.779  -1.680   1.171  1.00  0.00     0.077 C 
ATOM     14  O   UNL     1      -7.777  -0.662   2.012  1.00  0.00    -0.299 OA
ATOM     15  C   UNL     1      -2.870   2.190  -0.157  1.00  0.00     0.159 C 
ATOM     16  C   UNL     1      -2.816  -0.276  -0.100  1.00  0.00     0.008 C 
ATOM     17  C   UNL     1      -5.149  -1.607  -0.212  1.00  0.00     0.020 C 
ATOM     18  O   UNL     1      -2.274   3.248  -0.348  1.00  0.00    -0.295 OA
ATOM     19  C   UNL     1      -2.123   0.890  -0.025  1.00  0.00     0.006 C 
ATOM     20  C   UNL     1      -2.055  -1.530   0.239  1.00  0.00     0.160 C 
ATOM     21  C   UNL     1      -0.637   0.917   0.225  1.00  0.00     0.030 C 
ATOM     22  O   UNL     1      -2.648  -2.540   0.616  1.00  0.00    -0.294 OA
ATOM     23  C   UNL     1      -0.532  -1.549   0.206  1.00  0.00     0.088 C 
ATOM     24  C   UNL     1       0.080  -0.298  -0.426  1.00  0.00    -0.015 C 
ATOM     25  C   UNL     1       0.238   2.091  -0.214  1.00  0.00     0.009 C 
ATOM     26  C   UNL     1       1.665   1.536  -0.208  1.00  0.00     0.005 C 
ATOM     27  C   UNL     1      -7.101   1.946   1.235  1.00  0.00     0.016 C 
ATOM     28  C   UNL     1      -4.416  -0.048  -1.977  1.00  0.00     0.017 C 
ATOM     29  C   UNL     1      -0.073  -0.356  -1.967  1.00  0.00     0.013 C 
ENDBRANCH   5   7
ENDBRANCH   4   5
ENDBRANCH   3   4
ENDBRANCH   1   3
BRANCH   1  30
ATOM     30  C   UNL     1       7.206  -0.212   0.838  1.00  0.00     0.121 C 
ATOM     31  C   UNL     1       7.203  -1.614   1.450  1.00  0.00     0.025 C 
BRANCH  30  32
ATOM     32  C   UNL     1       6.532   0.785   1.774  1.00  0.00     0.310 C 
ATOM     33  O   UNL     1       5.743   0.538   2.672  1.00  0.00    -0.252 OA
BRANCH  32  34
ATOM     34  O   UNL     1       6.892   2.062   1.527  1.00  0.00    -0.481 OA
ATOM     35  H   UNL     1       6.375   2.584   2.175  1.00  0.00     0.296 HD
ENDBRANCH  32  34
ENDBRANCH  30  32
ENDBRANCH   1  30
TORSDOF 7
