REMARK SMILES CC1(C)CC[C@]2(C(=O)O)CC[C@]3(C)C(=CC[C@@H]4[C@@]5(C)C[C@@H](O)[C@H](O)[C@@](C)(CO)[C@@H]5[C@H](O)C[C@]43C)[C@@H]2C1
REMARK SMILES IDX 13 1 12 2 11 3 10 4 6 5 5 6 4 7 2 8 36 9 35 10 14 11 15 12
REMARK SMILES IDX 16 13 17 14 33 15 32 16 30 17 29 18 18 19 20 20 21 21 23 22
REMARK SMILES IDX 25 23 26 24 19 25 34 26 1 27 3 28 7 29 8 30 9 31 31 33 27 35
REMARK SMILES IDX 28 36 22 38 24 40
REMARK H PARENT 9 32 31 34 28 37 22 39 24 41
ROOT
ATOM      1  C   UNL     1      -0.853  -0.545  -1.716  1.00  0.00     0.017 C 
ATOM      2  C   UNL     1      -0.977   0.503  -0.570  1.00  0.00    -0.006 C 
ATOM      3  C   UNL     1      -1.736   1.733  -1.149  1.00  0.00     0.013 C 
ATOM      4  C   UNL     1      -3.205   1.467  -1.478  1.00  0.00     0.020 C 
ATOM      5  C   UNL     1      -4.015   1.018  -0.241  1.00  0.00     0.074 C 
ATOM      6  C   UNL     1      -5.464   0.681  -0.705  1.00  0.00     0.020 C 
ATOM      7  C   UNL     1      -6.118  -0.396   0.160  1.00  0.00     0.007 C 
ATOM      8  C   UNL     1      -5.361  -1.746   0.083  1.00  0.00    -0.035 C 
ATOM      9  C   UNL     1      -3.844  -1.528  -0.170  1.00  0.00     0.015 C 
ATOM     10  C   UNL     1      -3.341  -0.207   0.449  1.00  0.00     0.033 C 
ATOM     11  C   UNL     1      -1.811  -0.147   0.551  1.00  0.00    -0.063 C 
ATOM     12  C   UNL     1      -1.231  -0.642   1.663  1.00  0.00    -0.027 C 
ATOM     13  C   UNL     1       0.238  -0.644   1.968  1.00  0.00     0.032 C 
ATOM     14  C   UNL     1       1.128  -0.261   0.765  1.00  0.00     0.006 C 
ATOM     15  C   UNL     1       0.495   0.958  -0.004  1.00  0.00    -0.017 C 
ATOM     16  C   UNL     1       1.432   1.378  -1.171  1.00  0.00     0.040 C 
ATOM     17  C   UNL     1       2.916   1.523  -0.814  1.00  0.00     0.119 C 
ATOM     18  C   UNL     1       3.471   0.207  -0.209  1.00  0.00     0.035 C 
ATOM     19  C   UNL     1       2.695  -0.236   1.088  1.00  0.00    -0.020 C 
ATOM     20  C   UNL     1       3.115  -1.707   1.471  1.00  0.00     0.042 C 
ATOM     21  C   UNL     1       4.432  -2.215   0.879  1.00  0.00     0.144 C 
ATOM     22  C   UNL     1       5.506  -1.127   0.749  1.00  0.00     0.151 C 
ATOM     23  C   UNL     1       5.058   0.097  -0.134  1.00  0.00     0.025 C 
ATOM     24  C   UNL     1       5.740   1.392   0.365  1.00  0.00     0.017 C 
ATOM     25  C   UNL     1       3.030   0.638   2.321  1.00  0.00     0.012 C 
ATOM     26  C   UNL     1       0.312   2.182   0.945  1.00  0.00     0.013 C 
ATOM     27  C   UNL     1      -5.573  -2.511   1.403  1.00  0.00     0.011 C 
ATOM     28  C   UNL     1      -5.934  -2.606  -1.060  1.00  0.00     0.011 C 
ENDROOT
BRANCH   5  29
ATOM     29  C   UNL     1      -4.146   2.155   0.784  1.00  0.00     0.310 C 
ATOM     30  O   UNL     1      -4.258   2.044   1.995  1.00  0.00    -0.252 OA
BRANCH  29  31
ATOM     31  O   UNL     1      -4.223   3.384   0.235  1.00  0.00    -0.481 OA
ATOM     32  H   UNL     1      -4.333   3.974   1.010  1.00  0.00     0.296 HD
ENDBRANCH  29  31
ENDBRANCH   5  29
BRANCH  17  33
ATOM     33  O   UNL     1       3.118   2.649   0.024  1.00  0.00    -0.393 OA
ATOM     34  H   UNL     1       2.757   3.426  -0.436  1.00  0.00     0.210 HD
ENDBRANCH  17  33
BRANCH  23  35
ATOM     35  C   UNL     1       5.616  -0.199  -1.571  1.00  0.00     0.166 C 
BRANCH  35  36
ATOM     36  O   UNL     1       5.392   0.836  -2.517  1.00  0.00    -0.396 OA
ATOM     37  H   UNL     1       5.963   1.585  -2.275  1.00  0.00     0.210 HD
ENDBRANCH  35  36
ENDBRANCH  23  35
BRANCH  21  38
ATOM     38  O   UNL     1       4.166  -2.824  -0.385  1.00  0.00    -0.390 OA
ATOM     39  H   UNL     1       4.941  -3.359  -0.630  1.00  0.00     0.211 HD
ENDBRANCH  21  38
BRANCH  22  40
ATOM     40  O   UNL     1       5.946  -0.723   2.048  1.00  0.00    -0.390 OA
ATOM     41  H   UNL     1       6.252  -1.511   2.529  1.00  0.00     0.211 HD
ENDBRANCH  22  40
TORSDOF 7
