REMARK SMILES C=C(CC[C@@H](C(=O)O)[C@H]1CC[C@@]2(C)C3=CC[C@H]4C(C)(C)[C@@H](O)CC[C@]4(C)C3=CC[C@]12C)C(C)C
REMARK SMILES IDX 4 1 3 2 2 3 1 4 32 5 33 6 34 7 5 8 9 9 10 10 30 11 11 12
REMARK SMILES IDX 12 13 29 14 14 15 28 16 27 17 15 18 25 19 16 20 17 21 24 22
REMARK SMILES IDX 18 23 23 24 21 25 31 26 13 27 26 28 19 29 20 30 22 31 6 33
REMARK SMILES IDX 7 34 8 35
REMARK H PARENT 22 32 8 36
ROOT
ATOM      1  C   UNL     1       4.060  -1.815  -1.130  1.00  0.00     0.020 C 
ENDROOT
BRANCH   1   2
ATOM      2  C   UNL     1       5.404  -1.777  -0.381  1.00  0.00     0.031 C 
BRANCH   2   3
ATOM      3  C   UNL     1       5.310  -1.245   1.038  1.00  0.00    -0.075 C 
ATOM      4  C   UNL     1       4.769  -2.010   2.003  1.00  0.00     0.008 C 
BRANCH   3   5
ATOM      5  C   UNL     1       5.881   0.150   1.276  1.00  0.00     0.008 C 
ATOM      6  C   UNL     1       5.250   0.908   2.450  1.00  0.00     0.012 C 
ATOM      7  C   UNL     1       7.400   0.082   1.456  1.00  0.00     0.012 C 
ENDBRANCH   3   5
ENDBRANCH   2   3
ENDBRANCH   1   2
BRANCH   1   8
ATOM      8  C   UNL     1       3.445  -0.429  -1.404  1.00  0.00     0.103 C 
BRANCH   8   9
ATOM      9  C   UNL     1       1.985  -0.399  -1.932  1.00  0.00     0.010 C 
ATOM     10  C   UNL     1       1.510  -1.607  -2.782  1.00  0.00     0.006 C 
ATOM     11  C   UNL     1       0.849  -0.242  -0.884  1.00  0.00    -0.016 C 
ATOM     12  C   UNL     1      -0.007  -1.769  -2.520  1.00  0.00     0.012 C 
ATOM     13  C   UNL     1      -0.424  -0.492  -1.760  1.00  0.00    -0.002 C 
ATOM     14  C   UNL     1       0.724   1.148  -0.238  1.00  0.00     0.035 C 
ATOM     15  C   UNL     1      -1.670  -0.500  -0.877  1.00  0.00    -0.042 C 
ATOM     16  C   UNL     1      -0.619   1.297   0.448  1.00  0.00    -0.022 C 
ATOM     17  C   UNL     1      -1.704   0.520   0.214  1.00  0.00    -0.042 C 
ATOM     18  C   UNL     1      -2.709  -1.328  -1.110  1.00  0.00    -0.022 C 
ATOM     19  C   UNL     1      -2.985   0.532   1.101  1.00  0.00    -0.004 C 
ATOM     20  C   UNL     1      -4.050  -1.200  -0.440  1.00  0.00     0.032 C 
ATOM     21  C   UNL     1      -4.195   0.215   0.144  1.00  0.00     0.011 C 
ATOM     22  C   UNL     1      -3.285   1.851   1.882  1.00  0.00     0.014 C 
ATOM     23  C   UNL     1      -5.606   0.616   0.688  1.00  0.00    -0.005 C 
ATOM     24  C   UNL     1      -4.220   2.790   1.133  1.00  0.00     0.033 C 
ATOM     25  C   UNL     1      -5.609   2.170   0.912  1.00  0.00     0.120 C 
ATOM     26  C   UNL     1       1.024  -1.297   0.256  1.00  0.00     0.013 C 
ATOM     27  C   UNL     1      -0.711   0.595  -2.847  1.00  0.00     0.017 C 
ATOM     28  C   UNL     1      -2.712  -0.558   2.178  1.00  0.00     0.017 C 
ATOM     29  C   UNL     1      -6.696   0.308  -0.371  1.00  0.00     0.014 C 
ATOM     30  C   UNL     1      -6.014  -0.163   1.954  1.00  0.00     0.014 C 
BRANCH  25  31
ATOM     31  O   UNL     1      -6.444   2.534   2.010  1.00  0.00    -0.393 OA
ATOM     32  H   UNL     1      -7.356   2.287   1.779  1.00  0.00     0.210 HD
ENDBRANCH  25  31
ENDBRANCH   8   9
BRANCH   8  33
ATOM     33  C   UNL     1       4.326   0.332  -2.377  1.00  0.00     0.306 C 
ATOM     34  O   UNL     1       4.860   1.409  -2.167  1.00  0.00    -0.252 OA
BRANCH  33  35
ATOM     35  O   UNL     1       4.473  -0.278  -3.568  1.00  0.00    -0.481 OA
ATOM     36  H   UNL     1       5.043   0.334  -4.079  1.00  0.00     0.296 HD
ENDBRANCH  33  35
ENDBRANCH   8  33
ENDBRANCH   1   8
TORSDOF 8
