REMARK SMILES C=C[C@H]1[C@H](O[C@@H]2O[C@H](CO)[C@@H](O)[C@H](O)[C@H]2O)OC=C2C(=O)OCC[C@]21O
REMARK SMILES IDX 6 1 15 2 13 3 11 4 8 5 7 6 5 7 4 8 3 9 25 10 17 11 19 12
REMARK SMILES IDX 24 13 18 14 20 15 23 16 22 17 21 18 2 19 1 20 26 21 16 23
REMARK SMILES IDX 14 25 9 27 10 28 12 30
REMARK H PARENT 26 22 16 24 14 26 10 29 12 31
ROOT
ATOM      1  C   UNL     1      -1.313  -0.940  -1.453  1.00  0.00     0.286 C 
ATOM      2  C   UNL     1      -2.309  -2.119  -1.452  1.00  0.00     0.202 C 
ATOM      3  C   UNL     1      -3.156  -2.124  -0.168  1.00  0.00     0.179 C 
ATOM      4  C   UNL     1      -3.175  -0.762   0.544  1.00  0.00     0.177 C 
ATOM      5  C   UNL     1      -3.137   0.357  -0.497  1.00  0.00     0.178 C 
ATOM      6  O   UNL     1      -1.932   0.341  -1.289  1.00  0.00    -0.341 OA
ENDROOT
BRANCH   1   7
ATOM      7  O   UNL     1      -0.375  -1.154  -0.395  1.00  0.00    -0.310 OA
BRANCH   7   8
ATOM      8  C   UNL     1       0.799  -0.347  -0.557  1.00  0.00     0.319 C 
ATOM      9  C   UNL     1       1.536  -0.283   0.801  1.00  0.00     0.117 C 
ATOM     10  C   UNL     1       2.874   0.508   0.651  1.00  0.00     0.115 C 
ATOM     11  O   UNL     1       1.626  -0.948  -1.569  1.00  0.00    -0.471 OA
ATOM     12  C   UNL     1       3.489   0.281  -0.686  1.00  0.00     0.104 C 
ATOM     13  C   UNL     1       2.768   2.023   0.802  1.00  0.00     0.083 C 
ATOM     14  C   UNL     1       2.887  -0.424  -1.652  1.00  0.00     0.204 C 
ATOM     15  C   UNL     1       4.748   0.960  -1.023  1.00  0.00     0.340 C 
ATOM     16  C   UNL     1       4.154   2.643   0.676  1.00  0.00     0.236 C 
ATOM     17  O   UNL     1       4.927   2.170  -0.445  1.00  0.00    -0.462 OA
ATOM     18  O   UNL     1       5.537   0.502  -1.840  1.00  0.00    -0.246 OA
BRANCH   9  19
ATOM     19  C   UNL     1       0.635   0.247   1.908  1.00  0.00    -0.022 C 
ATOM     20  C   UNL     1       0.407  -0.389   3.065  1.00  0.00     0.004 C 
ENDBRANCH   9  19
BRANCH  10  21
ATOM     21  O   UNL     1       3.774   0.034   1.666  1.00  0.00    -0.384 OA
ATOM     22  H   UNL     1       3.936  -0.915   1.516  1.00  0.00     0.211 HD
ENDBRANCH  10  21
ENDBRANCH   7   8
ENDBRANCH   1   7
BRANCH   2  23
ATOM     23  O   UNL     1      -3.163  -2.032  -2.601  1.00  0.00    -0.385 OA
ATOM     24  H   UNL     1      -3.688  -2.852  -2.637  1.00  0.00     0.211 HD
ENDBRANCH   2  23
BRANCH   3  25
ATOM     25  O   UNL     1      -2.686  -3.115   0.761  1.00  0.00    -0.387 OA
ATOM     26  H   UNL     1      -1.746  -2.920   0.946  1.00  0.00     0.211 HD
ENDBRANCH   3  25
BRANCH   5  27
ATOM     27  C   UNL     1      -3.218   1.742   0.155  1.00  0.00     0.191 C 
BRANCH  27  28
ATOM     28  O   UNL     1      -3.139   2.759  -0.848  1.00  0.00    -0.394 OA
ATOM     29  H   UNL     1      -2.504   2.427  -1.511  1.00  0.00     0.210 HD
ENDBRANCH  27  28
ENDBRANCH   5  27
BRANCH   4  30
ATOM     30  O   UNL     1      -4.333  -0.680   1.378  1.00  0.00    -0.387 OA
ATOM     31  H   UNL     1      -4.354  -1.504   1.903  1.00  0.00     0.211 HD
ENDBRANCH   4  30
TORSDOF 9
