REMARK SMILES O=C1c2c(O)cc(O)cc2O[C@H](c2ccc(O)c(O)c2)[C@H]1O
REMARK SMILES IDX 12 1 21 2 2 3 1 4 3 5 4 6 6 7 7 8 9 9 10 10 11 11 13 12
REMARK SMILES IDX 14 13 15 14 16 15 20 16 18 17 17 18 19 20 22 22 5 24 8 26
REMARK H PARENT 17 19 19 21 22 23 5 25 8 27
ROOT
ATOM      1  C   UNL     1       0.288   0.441  -0.204  1.00  0.00     0.240 C 
ATOM      2  C   UNL     1      -0.328   1.366   0.856  1.00  0.00     0.231 C 
ATOM      3  C   UNL     1      -1.803   1.531   0.539  1.00  0.00     0.202 C 
ATOM      4  O   UNL     1      -2.421   2.566   0.793  1.00  0.00    -0.291 OA
ATOM      5  C   UNL     1      -2.495   0.378  -0.056  1.00  0.00     0.105 A 
ATOM      6  C   UNL     1      -3.876   0.384  -0.275  1.00  0.00     0.133 A 
ATOM      7  C   UNL     1      -4.503  -0.745  -0.793  1.00  0.00     0.093 A 
ATOM      8  C   UNL     1      -3.747  -1.877  -1.084  1.00  0.00     0.123 A 
ATOM      9  C   UNL     1      -2.371  -1.893  -0.875  1.00  0.00     0.093 A 
ATOM     10  C   UNL     1      -1.742  -0.752  -0.375  1.00  0.00     0.138 A 
ATOM     11  O   UNL     1      -0.388  -0.834  -0.195  1.00  0.00    -0.481 OA
ENDROOT
BRANCH   1  12
ATOM     12  C   UNL     1       1.773   0.115  -0.059  1.00  0.00    -0.001 A 
ATOM     13  C   UNL     1       2.375  -0.699  -1.046  1.00  0.00     0.012 A 
ATOM     14  C   UNL     1       3.727  -1.041  -0.980  1.00  0.00     0.050 A 
ATOM     15  C   UNL     1       4.491  -0.566   0.070  1.00  0.00     0.157 A 
ATOM     16  C   UNL     1       2.574   0.585   0.995  1.00  0.00     0.057 A 
ATOM     17  C   UNL     1       3.925   0.243   1.049  1.00  0.00     0.157 A 
BRANCH  15  18
ATOM     18  O   UNL     1       5.814  -0.896   0.138  1.00  0.00    -0.504 OA
ATOM     19  H   UNL     1       6.135  -0.449   0.947  1.00  0.00     0.293 HD
ENDBRANCH  15  18
BRANCH  17  20
ATOM     20  O   UNL     1       4.741   0.688   2.054  1.00  0.00    -0.504 OA
ATOM     21  H   UNL     1       4.227   1.294   2.614  1.00  0.00     0.293 HD
ENDBRANCH  17  20
ENDBRANCH   1  12
BRANCH   2  22
ATOM     22  O   UNL     1       0.270   2.666   0.859  1.00  0.00    -0.381 OA
ATOM     23  H   UNL     1      -0.402   3.279   1.222  1.00  0.00     0.211 HD
ENDBRANCH   2  22
BRANCH   6  24
ATOM     24  O   UNL     1      -4.672   1.460   0.007  1.00  0.00    -0.507 OA
ATOM     25  H   UNL     1      -4.109   2.186   0.354  1.00  0.00     0.293 HD
ENDBRANCH   6  24
BRANCH   8  26
ATOM     26  O   UNL     1      -4.401  -2.966  -1.579  1.00  0.00    -0.508 OA
ATOM     27  H   UNL     1      -3.763  -3.683  -1.730  1.00  0.00     0.293 HD
ENDBRANCH   8  26
TORSDOF 6
