REMARK SMILES C=C(CC[C@@H](C)[C@H]1CC[C@H]2C3=C(C(=O)C[C@]12C)[C@@]1(C)CCC(=O)[C@@H](C)[C@@H]1CC3)C(C)C(=O)O
REMARK SMILES IDX 2 1 1 2 3 3 4 4 5 5 6 6 7 7 24 8 26 9 22 10 27 11 18 12
REMARK SMILES IDX 21 13 23 14 28 15 12 16 20 17 11 18 13 19 10 20 14 21 15 22
REMARK SMILES IDX 16 23 9 24 8 25 25 26 19 27 17 28 29 29 30 30 31 31 32 32
REMARK SMILES IDX 33 33
REMARK H PARENT 33 34
ROOT
ATOM      1  C   UNL     1       5.445  -1.121   0.821  1.00  0.00    -0.064 C 
ATOM      2  C   UNL     1       6.285  -0.552   1.705  1.00  0.00     0.008 C 
ENDROOT
BRANCH   1   3
ATOM      3  C   UNL     1       3.955  -1.314   1.082  1.00  0.00     0.031 C 
BRANCH   3   4
ATOM      4  C   UNL     1       3.228  -0.467   2.138  1.00  0.00     0.008 C 
BRANCH   4   5
ATOM      5  C   UNL     1       2.767   0.963   1.782  1.00  0.00    -0.010 C 
ATOM      6  C   UNL     1       3.959   1.897   1.535  1.00  0.00     0.008 C 
BRANCH   5   7
ATOM      7  C   UNL     1       1.676   1.202   0.703  1.00  0.00    -0.001 C 
ATOM      8  C   UNL     1      -5.948  -0.226  -1.705  1.00  0.00     0.057 C 
ATOM      9  C   UNL     1      -4.534   0.320  -1.390  1.00  0.00     0.010 C 
ATOM     10  C   UNL     1      -6.858  -0.057  -0.498  1.00  0.00     0.136 C 
ATOM     11  C   UNL     1      -3.516  -0.085  -2.460  1.00  0.00     0.009 C 
ATOM     12  C   UNL     1      -4.044  -0.084   0.047  1.00  0.00    -0.000 C 
ATOM     13  C   UNL     1      -6.412   0.919   0.559  1.00  0.00     0.077 C 
ATOM     14  O   UNL     1      -7.942  -0.636  -0.424  1.00  0.00    -0.299 OA
ATOM     15  C   UNL     1      -2.176   0.605  -2.221  1.00  0.00     0.032 C 
ATOM     16  C   UNL     1      -2.570   0.328   0.250  1.00  0.00     0.001 C 
ATOM     17  C   UNL     1      -5.003   0.614   1.066  1.00  0.00     0.020 C 
ATOM     18  C   UNL     1      -1.741   0.640  -0.778  1.00  0.00    -0.059 C 
ATOM     19  C   UNL     1      -2.019   0.367   1.670  1.00  0.00     0.159 C 
ATOM     20  C   UNL     1      -0.330   1.113  -0.523  1.00  0.00     0.022 C 
ATOM     21  O   UNL     1      -2.730   0.074   2.632  1.00  0.00    -0.295 OA
ATOM     22  C   UNL     1      -0.581   0.802   1.915  1.00  0.00     0.088 C 
ATOM     23  C   UNL     1       0.310   0.461   0.727  1.00  0.00    -0.016 C 
ATOM     24  C   UNL     1       0.776   0.966  -1.576  1.00  0.00     0.009 C 
ATOM     25  C   UNL     1       2.087   1.156  -0.786  1.00  0.00     0.005 C 
ATOM     26  C   UNL     1      -6.598   0.469  -2.901  1.00  0.00     0.016 C 
ATOM     27  C   UNL     1      -4.104  -1.620   0.261  1.00  0.00     0.017 C 
ATOM     28  C   UNL     1       0.426  -1.078   0.578  1.00  0.00     0.013 C 
ENDBRANCH   5   7
ENDBRANCH   4   5
ENDBRANCH   3   4
ENDBRANCH   1   3
BRANCH   1  29
ATOM     29  C   UNL     1       5.916  -1.703  -0.518  1.00  0.00     0.121 C 
ATOM     30  C   UNL     1       7.413  -1.996  -0.640  1.00  0.00     0.025 C 
BRANCH  29  31
ATOM     31  C   UNL     1       5.523  -0.785  -1.670  1.00  0.00     0.310 C 
ATOM     32  O   UNL     1       5.512   0.435  -1.687  1.00  0.00    -0.252 OA
BRANCH  31  33
ATOM     33  O   UNL     1       5.192  -1.474  -2.784  1.00  0.00    -0.481 OA
ATOM     34  H   UNL     1       4.995  -0.772  -3.439  1.00  0.00     0.296 HD
ENDBRANCH  31  33
ENDBRANCH  29  31
ENDBRANCH   1  29
TORSDOF 7
