REMARK SMILES CC(C)=CCC[C@@H](C(=O)O)[C@H]1CC[C@@]2(C)C3=C(CC[C@]12C)[C@@]1(C)CC[C@H](O)C(C)(C)[C@@H]1CC3
REMARK SMILES IDX 6 1 5 2 4 3 2 4 1 5 3 6 7 7 11 8 12 9 20 10 13 11 14 12
REMARK SMILES IDX 19 13 16 14 18 15 17 16 33 17 22 18 32 19 31 20 24 21 28 22
REMARK SMILES IDX 25 23 26 24 21 25 15 26 23 27 29 28 30 29 27 30 8 32 9 33
REMARK SMILES IDX 10 34
REMARK H PARENT 27 31 10 35
ROOT
ATOM      1  C   UNL     1       4.213   0.730   0.992  1.00  0.00     0.020 C 
ENDROOT
BRANCH   1   2
ATOM      2  C   UNL     1       4.455   1.564  -0.270  1.00  0.00     0.028 C 
BRANCH   2   3
ATOM      3  C   UNL     1       5.588   1.051  -1.117  1.00  0.00    -0.028 C 
ATOM      4  C   UNL     1       6.875   1.446  -1.082  1.00  0.00    -0.080 C 
ATOM      5  C   UNL     1       7.438   2.468  -0.134  1.00  0.00     0.039 C 
ATOM      6  C   UNL     1       7.888   0.852  -2.027  1.00  0.00     0.039 C 
ENDBRANCH   2   3
ENDBRANCH   1   2
BRANCH   1   7
ATOM      7  C   UNL     1       3.849  -0.753   0.762  1.00  0.00     0.103 C 
BRANCH   7   8
ATOM      8  C   UNL     1       2.554  -1.006  -0.057  1.00  0.00     0.010 C 
ATOM      9  C   UNL     1       2.274  -2.515  -0.322  1.00  0.00     0.006 C 
ATOM     10  C   UNL     1       1.153  -0.457   0.357  1.00  0.00    -0.019 C 
ATOM     11  C   UNL     1       0.746  -2.683  -0.434  1.00  0.00     0.012 C 
ATOM     12  C   UNL     1       0.204  -1.256  -0.621  1.00  0.00    -0.006 C 
ATOM     13  C   UNL     1       0.887   1.034   0.118  1.00  0.00     0.012 C 
ATOM     14  C   UNL     1      -1.260  -0.969  -0.298  1.00  0.00    -0.064 C 
ATOM     15  C   UNL     1      -0.604   1.390   0.309  1.00  0.00     0.032 C 
ATOM     16  C   UNL     1      -1.636   0.277   0.093  1.00  0.00    -0.064 C 
ATOM     17  C   UNL     1      -2.233  -2.106  -0.505  1.00  0.00     0.032 C 
ATOM     18  C   UNL     1      -3.120   0.621   0.396  1.00  0.00    -0.008 C 
ATOM     19  C   UNL     1      -3.686  -1.808  -0.132  1.00  0.00     0.009 C 
ATOM     20  C   UNL     1      -4.045  -0.346  -0.439  1.00  0.00     0.007 C 
ATOM     21  C   UNL     1      -3.464   2.077  -0.011  1.00  0.00     0.014 C 
ATOM     22  C   UNL     1      -5.589  -0.035  -0.435  1.00  0.00    -0.006 C 
ATOM     23  C   UNL     1      -4.949   2.408   0.093  1.00  0.00     0.033 C 
ATOM     24  C   UNL     1      -5.795   1.472  -0.764  1.00  0.00     0.120 C 
ATOM     25  C   UNL     1       0.880  -0.765   1.858  1.00  0.00     0.012 C 
ATOM     26  C   UNL     1       0.353  -0.905  -2.135  1.00  0.00     0.017 C 
ATOM     27  C   UNL     1      -3.268   0.477   1.930  1.00  0.00     0.016 C 
ATOM     28  C   UNL     1      -6.278  -0.846  -1.570  1.00  0.00     0.014 C 
ATOM     29  C   UNL     1      -6.313  -0.440   0.866  1.00  0.00     0.014 C 
BRANCH  24  30
ATOM     30  O   UNL     1      -7.166   1.853  -0.654  1.00  0.00    -0.393 OA
ATOM     31  H   UNL     1      -7.399   1.883   0.289  1.00  0.00     0.210 HD
ENDBRANCH  24  30
ENDBRANCH   7   8
BRANCH   7  32
ATOM     32  C   UNL     1       3.947  -1.470   2.100  1.00  0.00     0.306 C 
ATOM     33  O   UNL     1       3.636  -1.035   3.196  1.00  0.00    -0.252 OA
BRANCH  32  34
ATOM     34  O   UNL     1       4.485  -2.701   1.997  1.00  0.00    -0.481 OA
ATOM     35  H   UNL     1       4.511  -3.023   2.922  1.00  0.00     0.296 HD
ENDBRANCH  32  34
ENDBRANCH   7  32
ENDBRANCH   1   7
TORSDOF 7
