REMARK SMILES CC(C)=CCC[C@@H](C=O)[C@H]1CC[C@@]2(C)C3=C(CC[C@]12C)[C@@]1(C)CC[C@H](O)C(C)(C)[C@@H]1CC3
REMARK SMILES IDX 6 1 5 2 4 3 2 4 1 5 3 6 7 7 8 8 9 9 10 10 11 11 19 12 12 13
REMARK SMILES IDX 13 14 18 15 15 16 17 17 16 18 32 19 21 20 31 21 30 22 23 23
REMARK SMILES IDX 27 24 24 25 25 26 20 27 14 28 22 29 28 30 29 31 26 32
REMARK H PARENT 26 33
ROOT
ATOM      1  C   UNL     1       4.135   1.018   0.554  1.00  0.00     0.015 C 
ENDROOT
BRANCH   1   2
ATOM      2  C   UNL     1       5.561   1.513   0.838  1.00  0.00     0.028 C 
BRANCH   2   3
ATOM      3  C   UNL     1       6.624   0.696   0.159  1.00  0.00    -0.028 C 
ATOM      4  C   UNL     1       7.185   0.926  -1.044  1.00  0.00    -0.080 C 
ATOM      5  C   UNL     1       6.807   2.049  -1.971  1.00  0.00     0.039 C 
ATOM      6  C   UNL     1       8.269   0.023  -1.572  1.00  0.00     0.039 C 
ENDBRANCH   2   3
ENDBRANCH   1   2
BRANCH   1   7
ATOM      7  C   UNL     1       3.839  -0.407   1.054  1.00  0.00     0.057 C 
BRANCH   7   8
ATOM      8  C   UNL     1       3.916  -0.437   2.570  1.00  0.00     0.227 C 
ATOM      9  O   UNL     1       4.532  -1.297   3.194  1.00  0.00    -0.303 OA
ENDBRANCH   7   8
BRANCH   7  10
ATOM     10  C   UNL     1       2.540  -1.007   0.458  1.00  0.00     0.006 C 
ATOM     11  C   UNL     1       2.236  -2.445   0.968  1.00  0.00     0.006 C 
ATOM     12  C   UNL     1       1.154  -0.300   0.534  1.00  0.00    -0.020 C 
ATOM     13  C   UNL     1       0.704  -2.619   0.944  1.00  0.00     0.012 C 
ATOM     14  C   UNL     1       0.190  -1.461   0.070  1.00  0.00    -0.006 C 
ATOM     15  C   UNL     1       0.931   0.883  -0.417  1.00  0.00     0.012 C 
ATOM     16  C   UNL     1      -1.265  -1.021   0.193  1.00  0.00    -0.064 C 
ATOM     17  C   UNL     1      -0.554   1.309  -0.465  1.00  0.00     0.032 C 
ATOM     18  C   UNL     1      -1.611   0.260  -0.101  1.00  0.00    -0.064 C 
ATOM     19  C   UNL     1      -2.264  -2.086   0.579  1.00  0.00     0.032 C 
ATOM     20  C   UNL     1      -3.087   0.740  -0.027  1.00  0.00    -0.008 C 
ATOM     21  C   UNL     1      -3.709  -1.610   0.733  1.00  0.00     0.009 C 
ATOM     22  C   UNL     1      -4.034  -0.496  -0.275  1.00  0.00     0.007 C 
ATOM     23  C   UNL     1      -3.397   1.799  -1.114  1.00  0.00     0.014 C 
ATOM     24  C   UNL     1      -5.572  -0.196  -0.451  1.00  0.00    -0.006 C 
ATOM     25  C   UNL     1      -4.873   2.170  -1.198  1.00  0.00     0.033 C 
ATOM     26  C   UNL     1      -5.748   0.956  -1.485  1.00  0.00     0.120 C 
ATOM     27  C   UNL     1       0.872   0.181   1.987  1.00  0.00     0.012 C 
ATOM     28  C   UNL     1       0.346  -1.908  -1.418  1.00  0.00     0.017 C 
ATOM     29  C   UNL     1      -3.236   1.389   1.370  1.00  0.00     0.016 C 
ATOM     30  C   UNL     1      -6.312   0.117   0.866  1.00  0.00     0.014 C 
ATOM     31  C   UNL     1      -6.268  -1.459  -1.037  1.00  0.00     0.014 C 
BRANCH  26  32
ATOM     32  O   UNL     1      -7.098   1.415  -1.543  1.00  0.00    -0.393 OA
ATOM     33  H   UNL     1      -7.635   0.716  -1.951  1.00  0.00     0.210 HD
ENDBRANCH  26  32
ENDBRANCH   7  10
ENDBRANCH   1   7
TORSDOF 6
