REMARK SMILES CC(C)=CC[C@@H](O)[C@@H](C)[C@H]1CC[C@@]2(C)C3=C(CC[C@]12C)[C@@]1(C)CC[C@H](O)C(C)(C)[C@@H]1CC3
REMARK SMILES IDX 9 1 8 2 10 3 11 4 19 5 12 6 13 7 18 8 15 9 17 10 16 11 32 12
REMARK SMILES IDX 21 13 31 14 30 15 23 16 27 17 24 18 25 19 20 20 14 21 22 22
REMARK SMILES IDX 28 23 29 24 26 25 6 27 5 28 4 29 2 30 1 31 3 32 7 33
REMARK H PARENT 26 26 7 34
ROOT
ATOM      1  C   UNL     1       3.763   1.582   2.296  1.00  0.00     0.011 C 
ATOM      2  C   UNL     1       3.792   0.638   1.081  1.00  0.00     0.019 C 
ENDROOT
BRANCH   2   3
ATOM      3  C   UNL     1       2.528  -0.258   0.869  1.00  0.00     0.001 C 
ATOM      4  C   UNL     1       2.292  -1.227   2.071  1.00  0.00     0.005 C 
ATOM      5  C   UNL     1       1.092   0.274   0.558  1.00  0.00    -0.020 C 
ATOM      6  C   UNL     1       0.775  -1.462   2.180  1.00  0.00     0.012 C 
ATOM      7  C   UNL     1       0.216  -1.017   0.819  1.00  0.00    -0.006 C 
ATOM      8  C   UNL     1       0.809   0.710  -0.884  1.00  0.00     0.012 C 
ATOM      9  C   UNL     1      -1.271  -0.695   0.693  1.00  0.00    -0.064 C 
ATOM     10  C   UNL     1      -0.697   0.959  -1.125  1.00  0.00     0.032 C 
ATOM     11  C   UNL     1      -1.698   0.180  -0.256  1.00  0.00    -0.064 C 
ATOM     12  C   UNL     1      -2.205  -1.436   1.619  1.00  0.00     0.032 C 
ATOM     13  C   UNL     1      -3.210   0.494  -0.471  1.00  0.00    -0.008 C 
ATOM     14  C   UNL     1      -3.651  -0.947   1.594  1.00  0.00     0.009 C 
ATOM     15  C   UNL     1      -4.096  -0.638   0.159  1.00  0.00     0.007 C 
ATOM     16  C   UNL     1      -3.553   0.574  -1.991  1.00  0.00     0.014 C 
ATOM     17  C   UNL     1      -5.659  -0.466  -0.007  1.00  0.00    -0.006 C 
ATOM     18  C   UNL     1      -4.924   0.024  -2.405  1.00  0.00     0.033 C 
ATOM     19  C   UNL     1      -6.013   0.230  -1.360  1.00  0.00     0.120 C 
ATOM     20  C   UNL     1       0.726   1.450   1.508  1.00  0.00     0.012 C 
ATOM     21  C   UNL     1       0.445  -2.198  -0.178  1.00  0.00     0.017 C 
ATOM     22  C   UNL     1      -3.432   1.871   0.201  1.00  0.00     0.016 C 
ATOM     23  C   UNL     1      -6.333   0.242   1.188  1.00  0.00     0.014 C 
ATOM     24  C   UNL     1      -6.276  -1.895  -0.059  1.00  0.00     0.014 C 
BRANCH  19  25
ATOM     25  O   UNL     1      -6.230   1.632  -1.236  1.00  0.00    -0.393 OA
ATOM     26  H   UNL     1      -7.072   1.763  -0.769  1.00  0.00     0.210 HD
ENDBRANCH  19  25
ENDBRANCH   2   3
BRANCH   2  27
ATOM     27  C   UNL     1       4.299   1.425  -0.159  1.00  0.00     0.121 C 
BRANCH  27  28
ATOM     28  C   UNL     1       4.502   0.607  -1.448  1.00  0.00     0.059 C 
BRANCH  28  29
ATOM     29  C   UNL     1       5.500  -0.511  -1.311  1.00  0.00    -0.026 C 
ATOM     30  C   UNL     1       6.804  -0.489  -1.648  1.00  0.00    -0.080 C 
ATOM     31  C   UNL     1       7.662  -1.716  -1.477  1.00  0.00     0.039 C 
ATOM     32  C   UNL     1       7.534   0.705  -2.197  1.00  0.00     0.039 C 
ENDBRANCH  28  29
ENDBRANCH  27  28
BRANCH  27  33
ATOM     33  O   UNL     1       3.431   2.525  -0.428  1.00  0.00    -0.393 OA
ATOM     34  H   UNL     1       3.845   3.064  -1.123  1.00  0.00     0.210 HD
ENDBRANCH  27  33
ENDBRANCH   2  27
TORSDOF 6
