REMARK SMILES C=C(C)[C@@H]1CC[C@]2(CO)CC[C@]3(C)[C@H](CC[C@@H]4[C@@]5(C)CC[C@H](O)C(C)(C)[C@@H]5CC[C@]43C)[C@@H]12
REMARK SMILES IDX 4 1 5 2 6 3 7 4 32 5 14 6 15 7 16 8 17 9 18 10 20 11 21 12
REMARK SMILES IDX 22 13 24 14 27 15 28 16 29 17 30 18 12 19 11 20 10 21 13 22
REMARK SMILES IDX 31 23 25 24 26 25 19 26 2 27 1 28 3 29 8 30 9 31 23 33
REMARK H PARENT 9 32 23 34
ROOT
ATOM      1  C   UNL     1      -4.457   0.401  -0.814  1.00  0.00     0.018 C 
ATOM      2  C   UNL     1      -5.766   0.135  -0.024  1.00  0.00     0.009 C 
ATOM      3  C   UNL     1      -5.354  -0.458   1.335  1.00  0.00     0.010 C 
ATOM      4  C   UNL     1      -3.913  -0.958   1.143  1.00  0.00    -0.003 C 
ATOM      5  C   UNL     1      -3.351   0.170   0.237  1.00  0.00     0.008 C 
ATOM      6  C   UNL     1      -1.900  -0.142  -0.188  1.00  0.00    -0.000 C 
ATOM      7  C   UNL     1      -1.327   0.826  -1.230  1.00  0.00     0.005 C 
ATOM      8  C   UNL     1       0.096   0.461  -1.663  1.00  0.00     0.005 C 
ATOM      9  C   UNL     1       1.076   0.274  -0.481  1.00  0.00     0.002 C 
ATOM     10  C   UNL     1       2.605   0.100  -0.904  1.00  0.00    -0.026 C 
ATOM     11  C   UNL     1       3.049   1.357  -1.715  1.00  0.00     0.010 C 
ATOM     12  C   UNL     1       4.556   1.471  -1.926  1.00  0.00     0.033 C 
ATOM     13  C   UNL     1       5.336   1.420  -0.618  1.00  0.00     0.120 C 
ATOM     14  C   UNL     1       5.018   0.168   0.253  1.00  0.00    -0.006 C 
ATOM     15  C   UNL     1       3.454   0.065   0.424  1.00  0.00     0.003 C 
ATOM     16  C   UNL     1       2.977  -1.064   1.359  1.00  0.00     0.005 C 
ATOM     17  C   UNL     1       1.511  -0.870   1.763  1.00  0.00     0.008 C 
ATOM     18  C   UNL     1       0.514  -0.762   0.576  1.00  0.00    -0.024 C 
ATOM     19  C   UNL     1      -0.950  -0.256   1.077  1.00  0.00    -0.024 C 
ATOM     20  C   UNL     1      -1.584  -1.217   2.149  1.00  0.00     0.008 C 
ATOM     21  C   UNL     1      -3.081  -0.976   2.439  1.00  0.00     0.010 C 
ATOM     22  C   UNL     1      -0.846   1.134   1.797  1.00  0.00     0.012 C 
ATOM     23  C   UNL     1       0.401  -2.190  -0.040  1.00  0.00     0.012 C 
ATOM     24  C   UNL     1       5.668  -1.102  -0.330  1.00  0.00     0.014 C 
ATOM     25  C   UNL     1       5.679   0.386   1.644  1.00  0.00     0.014 C 
ATOM     26  C   UNL     1       2.819  -1.136  -1.812  1.00  0.00     0.012 C 
ENDROOT
BRANCH   1  27
ATOM     27  C   UNL     1      -4.486   1.761  -1.501  1.00  0.00    -0.077 C 
ATOM     28  C   UNL     1      -4.615   1.852  -2.837  1.00  0.00     0.008 C 
ATOM     29  C   UNL     1      -4.393   3.005  -0.658  1.00  0.00     0.039 C 
ENDBRANCH   1  27
BRANCH   4  30
ATOM     30  C   UNL     1      -3.929  -2.403   0.554  1.00  0.00     0.163 C 
BRANCH  30  31
ATOM     31  O   UNL     1      -4.719  -2.539  -0.615  1.00  0.00    -0.396 OA
ATOM     32  H   UNL     1      -4.678  -3.472  -0.884  1.00  0.00     0.210 HD
ENDBRANCH  30  31
ENDBRANCH   4  30
BRANCH  13  33
ATOM     33  O   UNL     1       6.722   1.495  -0.953  1.00  0.00    -0.393 OA
ATOM     34  H   UNL     1       7.212   1.739  -0.150  1.00  0.00     0.210 HD
ENDBRANCH  13  33
TORSDOF 4
