REMARK SMILES C[C@@H]1CC[C@]2(C(=O)O)CC[C@]3(C)C(=CC[C@@H]4[C@@]5(C)CC[C@H](O)[C@](C)(C(=O)O)[C@@H]5CC[C@]43C)[C@@H]2[C@]1(C)O
REMARK SMILES IDX 1 1 2 2 3 3 4 4 5 5 9 6 10 7 11 8 13 9 14 10 15 11 16 12
REMARK SMILES IDX 31 13 30 14 29 15 28 16 17 17 19 18 20 19 21 20 23 21 24 22
REMARK SMILES IDX 18 23 32 24 33 25 34 26 35 27 12 28 36 29 6 31 7 32 8 33
REMARK SMILES IDX 25 35 26 36 27 37 22 39
REMARK H PARENT 36 30 8 34 27 38 22 40
ROOT
ATOM      1  C   UNL     1      -6.269   1.302  -2.188  1.00  0.00     0.011 C 
ATOM      2  C   UNL     1      -5.362   0.188  -1.642  1.00  0.00     0.018 C 
ATOM      3  C   UNL     1      -6.028  -0.454  -0.404  1.00  0.00     0.007 C 
ATOM      4  C   UNL     1      -5.386  -0.036   0.915  1.00  0.00     0.020 C 
ATOM      5  C   UNL     1      -3.877  -0.402   0.996  1.00  0.00     0.077 C 
ATOM      6  C   UNL     1      -3.191   0.600   1.957  1.00  0.00     0.020 C 
ATOM      7  C   UNL     1      -1.686   0.370   2.083  1.00  0.00     0.013 C 
ATOM      8  C   UNL     1      -0.901   0.403   0.740  1.00  0.00    -0.006 C 
ATOM      9  C   UNL     1      -1.652  -0.395  -0.347  1.00  0.00    -0.061 C 
ATOM     10  C   UNL     1      -0.984  -1.166  -1.231  1.00  0.00    -0.026 C 
ATOM     11  C   UNL     1       0.503  -1.324  -1.332  1.00  0.00     0.032 C 
ATOM     12  C   UNL     1       1.302  -0.346  -0.448  1.00  0.00     0.006 C 
ATOM     13  C   UNL     1       0.611  -0.204   0.961  1.00  0.00    -0.020 C 
ATOM     14  C   UNL     1       1.463   0.721   1.873  1.00  0.00     0.008 C 
ATOM     15  C   UNL     1       2.957   0.393   1.888  1.00  0.00     0.006 C 
ATOM     16  C   UNL     1       3.544   0.499   0.467  1.00  0.00     0.015 C 
ATOM     17  C   UNL     1       2.885  -0.560  -0.491  1.00  0.00    -0.025 C 
ATOM     18  C   UNL     1       3.371  -0.268  -1.946  1.00  0.00     0.010 C 
ATOM     19  C   UNL     1       4.885  -0.136  -2.095  1.00  0.00     0.033 C 
ATOM     20  C   UNL     1       5.475   0.877  -1.118  1.00  0.00     0.131 C 
ATOM     21  C   UNL     1       5.109   0.617   0.375  1.00  0.00     0.094 C 
ATOM     22  C   UNL     1       5.633   1.820   1.197  1.00  0.00     0.027 C 
ATOM     23  C   UNL     1       3.314  -2.009  -0.152  1.00  0.00     0.012 C 
ATOM     24  C   UNL     1       0.515  -1.591   1.670  1.00  0.00     0.012 C 
ATOM     25  C   UNL     1      -3.198  -0.389  -0.411  1.00  0.00     0.064 C 
ATOM     26  C   UNL     1      -3.888   0.651  -1.377  1.00  0.00     0.072 C 
ATOM     27  C   UNL     1      -3.140   0.799  -2.714  1.00  0.00     0.043 C 
ATOM     28  C   UNL     1      -0.848   1.885   0.272  1.00  0.00     0.017 C 
ENDROOT
BRANCH  26  29
ATOM     29  O   UNL     1      -3.928   1.940  -0.761  1.00  0.00    -0.389 OA
ATOM     30  H   UNL     1      -4.116   2.607  -1.443  1.00  0.00     0.211 HD
ENDBRANCH  26  29
BRANCH   5  31
ATOM     31  C   UNL     1      -3.814  -1.802   1.627  1.00  0.00     0.310 C 
ATOM     32  O   UNL     1      -3.632  -2.064   2.806  1.00  0.00    -0.252 OA
BRANCH  31  33
ATOM     33  O   UNL     1      -4.072  -2.814   0.775  1.00  0.00    -0.481 OA
ATOM     34  H   UNL     1      -4.018  -3.609   1.346  1.00  0.00     0.296 HD
ENDBRANCH  31  33
ENDBRANCH   5  31
BRANCH  21  35
ATOM     35  C   UNL     1       5.867  -0.602   0.891  1.00  0.00     0.312 C 
ATOM     36  O   UNL     1       6.709  -1.242   0.276  1.00  0.00    -0.252 OA
BRANCH  35  37
ATOM     37  O   UNL     1       5.583  -0.936   2.162  1.00  0.00    -0.481 OA
ATOM     38  H   UNL     1       6.167  -1.700   2.352  1.00  0.00     0.296 HD
ENDBRANCH  35  37
ENDBRANCH  21  35
BRANCH  20  39
ATOM     39  O   UNL     1       6.885   0.964  -1.330  1.00  0.00    -0.392 OA
ATOM     40  H   UNL     1       7.264   0.087  -1.115  1.00  0.00     0.210 HD
ENDBRANCH  20  39
TORSDOF 6
