REMARK SMILES C[C@@H]1[C@@H](O)C[C@]2(C(=O)O)CC[C@]3(C)C(=CC[C@@H]4[C@@]5(C)CC[C@H](O)[C@@](C)(CO)[C@@H]5CC[C@]43C)[C@@H]2[C@]1(C)O
REMARK SMILES IDX 1 1 2 2 3 3 5 4 6 5 10 6 11 7 12 8 14 9 15 10 16 11 17 12
REMARK SMILES IDX 31 13 30 14 29 15 28 16 18 17 20 18 21 19 22 20 24 21 25 22
REMARK SMILES IDX 19 23 32 24 33 25 34 26 35 27 13 28 4 29 36 31 7 33 8 34
REMARK SMILES IDX 9 35 26 37 27 38 23 40
REMARK H PARENT 4 30 36 32 9 36 27 39 23 41
ROOT
ATOM      1  C   UNL     1      -6.438   2.041   0.241  1.00  0.00     0.013 C 
ATOM      2  C   UNL     1      -5.518   1.038  -0.476  1.00  0.00     0.047 C 
ATOM      3  C   UNL     1      -6.060  -0.391  -0.249  1.00  0.00     0.121 C 
ATOM      4  C   UNL     1      -5.246  -1.186   0.764  1.00  0.00     0.051 C 
ATOM      5  C   UNL     1      -3.758  -1.369   0.343  1.00  0.00     0.080 C 
ATOM      6  C   UNL     1      -2.936  -1.645   1.621  1.00  0.00     0.020 C 
ATOM      7  C   UNL     1      -1.443  -1.780   1.338  1.00  0.00     0.013 C 
ATOM      8  C   UNL     1      -0.798  -0.533   0.671  1.00  0.00    -0.006 C 
ATOM      9  C   UNL     1      -1.677  -0.025  -0.494  1.00  0.00    -0.061 C 
ATOM     10  C   UNL     1      -1.114   0.424  -1.637  1.00  0.00    -0.026 C 
ATOM     11  C   UNL     1       0.352   0.549  -1.925  1.00  0.00     0.032 C 
ATOM     12  C   UNL     1       1.254   0.320  -0.696  1.00  0.00     0.006 C 
ATOM     13  C   UNL     1       0.715  -0.902   0.142  1.00  0.00    -0.020 C 
ATOM     14  C   UNL     1       1.678  -1.196   1.325  1.00  0.00     0.008 C 
ATOM     15  C   UNL     1       3.157  -1.243   0.939  1.00  0.00     0.005 C 
ATOM     16  C   UNL     1       3.595   0.100   0.321  1.00  0.00     0.006 C 
ATOM     17  C   UNL     1       2.819   0.394  -1.007  1.00  0.00    -0.025 C 
ATOM     18  C   UNL     1       3.154   1.855  -1.478  1.00  0.00     0.010 C 
ATOM     19  C   UNL     1       4.390   2.489  -0.829  1.00  0.00     0.033 C 
ATOM     20  C   UNL     1       5.548   1.512  -0.648  1.00  0.00     0.123 C 
ATOM     21  C   UNL     1       5.165   0.313   0.282  1.00  0.00     0.020 C 
ATOM     22  C   UNL     1       5.934  -0.964  -0.124  1.00  0.00     0.017 C 
ATOM     23  C   UNL     1       3.242  -0.559  -2.151  1.00  0.00     0.012 C 
ATOM     24  C   UNL     1       0.657  -2.194  -0.731  1.00  0.00     0.012 C 
ATOM     25  C   UNL     1      -3.225  -0.118  -0.438  1.00  0.00     0.065 C 
ATOM     26  C   UNL     1      -4.011   1.198  -0.063  1.00  0.00     0.075 C 
ATOM     27  C   UNL     1      -3.439   2.455  -0.749  1.00  0.00     0.043 C 
ATOM     28  C   UNL     1      -0.761   0.595   1.740  1.00  0.00     0.017 C 
ENDROOT
BRANCH   3  29
ATOM     29  O   UNL     1      -6.047  -1.107  -1.485  1.00  0.00    -0.393 OA
ATOM     30  H   UNL     1      -6.685  -0.678  -2.082  1.00  0.00     0.210 HD
ENDBRANCH   3  29
BRANCH  26  31
ATOM     31  O   UNL     1      -3.967   1.420   1.351  1.00  0.00    -0.389 OA
ATOM     32  H   UNL     1      -3.238   2.035   1.539  1.00  0.00     0.211 HD
ENDBRANCH  26  31
BRANCH   5  33
ATOM     33  C   UNL     1      -3.664  -2.604  -0.571  1.00  0.00     0.310 C 
ATOM     34  O   UNL     1      -3.176  -2.672  -1.689  1.00  0.00    -0.252 OA
BRANCH  33  35
ATOM     35  O   UNL     1      -4.143  -3.733  -0.005  1.00  0.00    -0.481 OA
ATOM     36  H   UNL     1      -4.026  -4.398  -0.715  1.00  0.00     0.296 HD
ENDBRANCH  33  35
ENDBRANCH   5  33
BRANCH  21  37
ATOM     37  C   UNL     1       5.603   0.689   1.737  1.00  0.00     0.165 C 
BRANCH  37  38
ATOM     38  O   UNL     1       7.001   0.933   1.850  1.00  0.00    -0.396 OA
ATOM     39  H   UNL     1       7.460   0.082   1.740  1.00  0.00     0.210 HD
ENDBRANCH  37  38
ENDBRANCH  21  37
BRANCH  20  40
ATOM     40  O   UNL     1       5.983   1.074  -1.935  1.00  0.00    -0.392 OA
ATOM     41  H   UNL     1       6.289   1.859  -2.421  1.00  0.00     0.210 HD
ENDBRANCH  20  40
TORSDOF 7
