REMARK SMILES O=C1c2c(O)cc(O)cc2O[C@H](c2ccc(O)cc2)[C@H]1O
REMARK SMILES IDX 12 1 20 2 2 3 1 4 3 5 4 6 6 7 7 8 9 9 10 10 11 11 13 12
REMARK SMILES IDX 14 13 15 14 16 15 19 16 18 17 17 18 21 20 5 22 8 24
REMARK H PARENT 17 19 21 21 5 23 8 25
ROOT
ATOM      1  C   UNL     1       0.417  -0.537   0.307  1.00  0.00     0.240 C 
ATOM      2  C   UNL     1      -0.032  -1.307  -0.935  1.00  0.00     0.231 C 
ATOM      3  C   UNL     1      -1.550  -1.376  -0.935  1.00  0.00     0.202 C 
ATOM      4  O   UNL     1      -2.120  -2.372  -1.378  1.00  0.00    -0.291 OA
ATOM      5  C   UNL     1      -2.269  -0.191  -0.409  1.00  0.00     0.105 A 
ATOM      6  C   UNL     1      -3.660  -0.033  -0.509  1.00  0.00     0.133 A 
ATOM      7  C   UNL     1      -4.283   1.122  -0.025  1.00  0.00     0.093 A 
ATOM      8  C   UNL     1      -3.507   2.122   0.551  1.00  0.00     0.123 A 
ATOM      9  C   UNL     1      -2.129   1.981   0.656  1.00  0.00     0.093 A 
ATOM     10  C   UNL     1      -1.511   0.820   0.189  1.00  0.00     0.138 A 
ATOM     11  O   UNL     1      -0.152   0.783   0.337  1.00  0.00    -0.481 OA
ENDROOT
BRANCH   1  12
ATOM     12  C   UNL     1       1.932  -0.383   0.352  1.00  0.00    -0.004 A 
ATOM     13  C   UNL     1       2.588   0.673  -0.306  1.00  0.00     0.011 A 
ATOM     14  C   UNL     1       3.980   0.789  -0.262  1.00  0.00     0.046 A 
ATOM     15  C   UNL     1       4.724  -0.155   0.436  1.00  0.00     0.115 A 
ATOM     16  C   UNL     1       2.709  -1.329   1.041  1.00  0.00     0.011 A 
ATOM     17  C   UNL     1       4.100  -1.213   1.085  1.00  0.00     0.046 A 
BRANCH  15  18
ATOM     18  O   UNL     1       6.083  -0.080   0.505  1.00  0.00    -0.508 OA
ATOM     19  H   UNL     1       6.374   0.699   0.003  1.00  0.00     0.293 HD
ENDBRANCH  15  18
ENDBRANCH   1  12
BRANCH   2  20
ATOM     20  O   UNL     1       0.467  -2.651  -0.937  1.00  0.00    -0.381 OA
ATOM     21  H   UNL     1      -0.166  -3.168  -1.477  1.00  0.00     0.211 HD
ENDBRANCH   2  20
BRANCH   6  22
ATOM     22  O   UNL     1      -4.430  -0.996  -1.096  1.00  0.00    -0.507 OA
ATOM     23  H   UNL     1      -5.371  -0.765  -1.047  1.00  0.00     0.293 HD
ENDBRANCH   6  22
BRANCH   8  24
ATOM     24  O   UNL     1      -4.063   3.270   1.029  1.00  0.00    -0.508 OA
ATOM     25  H   UNL     1      -5.026   3.243   0.904  1.00  0.00     0.293 HD
ENDBRANCH   8  24
TORSDOF 5
