REMARK SMILES C=C[C@H]1[C@H](O[C@@H]2O[C@H](CO)[C@@H](O)[C@H](O)[C@H]2O)OC=C2C(=O)OCC[C@H]21
REMARK SMILES IDX 6 1 15 2 13 3 11 4 8 5 7 6 5 7 4 8 3 9 25 10 24 11 19 12
REMARK SMILES IDX 17 13 23 14 20 15 18 16 22 17 21 18 2 19 1 20 16 21 14 23
REMARK SMILES IDX 9 25 10 26 12 28
REMARK H PARENT 16 22 14 24 10 27 12 29
ROOT
ATOM      1  C   UNL     1      -1.485  -1.305  -0.597  1.00  0.00     0.286 C 
ATOM      2  C   UNL     1      -2.187  -1.290   0.785  1.00  0.00     0.202 C 
ATOM      3  C   UNL     1      -3.701  -1.273   0.592  1.00  0.00     0.179 C 
ATOM      4  C   UNL     1      -4.145  -0.047  -0.208  1.00  0.00     0.177 C 
ATOM      5  C   UNL     1      -3.199   0.234  -1.391  1.00  0.00     0.178 C 
ATOM      6  O   UNL     1      -2.350  -0.897  -1.665  1.00  0.00    -0.341 OA
ENDROOT
BRANCH   1   7
ATOM      7  O   UNL     1      -0.263  -0.579  -0.683  1.00  0.00    -0.310 OA
BRANCH   7   8
ATOM      8  C   UNL     1       0.760  -1.029   0.214  1.00  0.00     0.316 C 
ATOM      9  C   UNL     1       2.139  -0.758  -0.466  1.00  0.00     0.088 C 
ATOM     10  C   UNL     1       2.302   0.781  -0.617  1.00  0.00     0.046 C 
ATOM     11  C   UNL     1       3.653   1.246  -1.173  1.00  0.00     0.051 C 
ATOM     12  C   UNL     1       1.960   1.453   0.677  1.00  0.00     0.076 C 
ATOM     13  O   UNL     1       0.635  -0.383   1.492  1.00  0.00    -0.471 OA
ATOM     14  C   UNL     1       4.499   1.874  -0.082  1.00  0.00     0.234 C 
ATOM     15  C   UNL     1       2.530   2.775   0.983  1.00  0.00     0.337 C 
ATOM     16  C   UNL     1       1.191   0.864   1.601  1.00  0.00     0.202 C 
ATOM     17  O   UNL     1       3.788   2.973   0.514  1.00  0.00    -0.462 OA
ATOM     18  O   UNL     1       1.914   3.631   1.603  1.00  0.00    -0.246 OA
BRANCH   9  19
ATOM     19  C   UNL     1       3.339  -1.453   0.170  1.00  0.00    -0.024 C 
ATOM     20  C   UNL     1       3.409  -2.035   1.375  1.00  0.00     0.004 C 
ENDBRANCH   9  19
ENDBRANCH   7   8
ENDBRANCH   1   7
BRANCH   2  21
ATOM     21  O   UNL     1      -1.842  -2.460   1.563  1.00  0.00    -0.385 OA
ATOM     22  H   UNL     1      -2.174  -3.244   1.089  1.00  0.00     0.211 HD
ENDBRANCH   2  21
BRANCH   3  23
ATOM     23  O   UNL     1      -4.384  -1.285   1.858  1.00  0.00    -0.387 OA
ATOM     24  H   UNL     1      -3.789  -1.741   2.485  1.00  0.00     0.211 HD
ENDBRANCH   3  23
BRANCH   5  25
ATOM     25  C   UNL     1      -2.397   1.539  -1.226  1.00  0.00     0.191 C 
BRANCH  25  26
ATOM     26  O   UNL     1      -1.903   1.691   0.100  1.00  0.00    -0.394 OA
ATOM     27  H   UNL     1      -1.276   2.437   0.093  1.00  0.00     0.210 HD
ENDBRANCH  25  26
ENDBRANCH   5  25
BRANCH   4  28
ATOM     28  O   UNL     1      -5.476  -0.308  -0.694  1.00  0.00    -0.387 OA
ATOM     29  H   UNL     1      -5.994  -0.551   0.100  1.00  0.00     0.211 HD
ENDBRANCH   4  28
TORSDOF 8
