REMARK SMILES COC[C@H]1Cc2cc(OC)c(OC)cc2[C@@H](c2ccc3c(c2)OCO3)[C@@H]1COC
REMARK SMILES IDX 4 1 5 2 6 3 7 4 8 5 11 6 14 7 15 8 16 9 26 10 3 11 2 12 1 13
REMARK SMILES IDX 27 14 28 15 29 16 17 17 22 18 18 19 21 20 19 21 20 22 23 23
REMARK SMILES IDX 25 24 24 25 9 26 10 27 12 28 13 29
REMARK H PARENT
ROOT
ATOM      1  C   UNL     1      -2.190  -0.867  -0.287  1.00  0.00     0.026 C 
ATOM      2  C   UNL     1      -1.306  -1.909  -0.992  1.00  0.00     0.042 C 
ATOM      3  C   UNL     1       0.070  -2.033  -0.398  1.00  0.00    -0.040 A 
ATOM      4  C   UNL     1       0.792  -3.222  -0.610  1.00  0.00     0.054 A 
ATOM      5  C   UNL     1       2.073  -3.398  -0.078  1.00  0.00     0.161 A 
ATOM      6  C   UNL     1       2.649  -2.365   0.679  1.00  0.00     0.161 A 
ATOM      7  C   UNL     1       1.931  -1.181   0.883  1.00  0.00     0.055 A 
ATOM      8  C   UNL     1       0.651  -0.985   0.324  1.00  0.00    -0.033 A 
ATOM      9  C   UNL     1      -0.099   0.325   0.579  1.00  0.00     0.055 C 
ATOM     10  C   UNL     1      -1.426   0.487  -0.237  1.00  0.00     0.032 C 
ENDROOT
BRANCH   1  11
ATOM     11  C   UNL     1      -3.532  -0.806  -1.044  1.00  0.00     0.164 C 
BRANCH  11  12
ATOM     12  O   UNL     1      -4.537  -0.201  -0.235  1.00  0.00    -0.384 OA
ATOM     13  C   UNL     1      -5.793  -0.151  -0.898  1.00  0.00     0.194 C 
ENDBRANCH  11  12
ENDBRANCH   1  11
BRANCH  10  14
ATOM     14  C   UNL     1      -2.269   1.643   0.338  1.00  0.00     0.164 C 
BRANCH  14  15
ATOM     15  O   UNL     1      -2.595   1.383   1.702  1.00  0.00    -0.384 OA
ATOM     16  C   UNL     1      -3.513   2.339   2.214  1.00  0.00     0.194 C 
ENDBRANCH  14  15
ENDBRANCH  10  14
BRANCH   9  17
ATOM     17  C   UNL     1       0.797   1.553   0.371  1.00  0.00    -0.036 A 
ATOM     18  C   UNL     1       1.418   1.799  -0.868  1.00  0.00     0.055 A 
ATOM     19  C   UNL     1       1.002   2.459   1.441  1.00  0.00     0.008 A 
ATOM     20  C   UNL     1       2.209   2.922  -0.989  1.00  0.00     0.166 A 
ATOM     21  C   UNL     1       1.810   3.589   1.287  1.00  0.00     0.051 A 
ATOM     22  C   UNL     1       2.400   3.791   0.059  1.00  0.00     0.165 A 
ATOM     23  O   UNL     1       2.878   3.304  -2.109  1.00  0.00    -0.454 OA
ATOM     24  O   UNL     1       3.214   4.830  -0.270  1.00  0.00    -0.454 OA
ATOM     25  C   UNL     1       3.520   4.509  -1.643  1.00  0.00     0.468 C 
ENDBRANCH   9  17
BRANCH   5  26
ATOM     26  O   UNL     1       2.836  -4.528  -0.241  1.00  0.00    -0.493 OA
ATOM     27  C   UNL     1       2.269  -5.608  -0.967  1.00  0.00     0.278 C 
ENDBRANCH   5  26
BRANCH   6  28
ATOM     28  O   UNL     1       3.904  -2.608   1.181  1.00  0.00    -0.493 OA
ATOM     29  C   UNL     1       4.570  -1.534   1.829  1.00  0.00     0.278 C 
ENDBRANCH   6  28
TORSDOF 7
