REMARK SMILES C=C(CC[C@@H](C(=O)O)[C@H]1CC[C@@]2(C)C3=C(CC[C@]12C)[C@@]1(C)CC[C@H](O)C(C)(C)[C@@H]1CC3)C(C)C
REMARK SMILES IDX 4 1 3 2 2 3 1 4 32 5 33 6 34 7 5 8 9 9 10 10 18 11 11 12
REMARK SMILES IDX 12 13 17 14 14 15 16 16 15 17 31 18 20 19 30 20 29 21 22 22
REMARK SMILES IDX 26 23 23 24 24 25 19 26 13 27 21 28 27 29 28 30 25 31 6 33
REMARK SMILES IDX 7 34 8 35
REMARK H PARENT 25 32 8 36
ROOT
ATOM      1  C   UNL     1       3.922  -0.909   0.573  1.00  0.00     0.020 C 
ENDROOT
BRANCH   1   2
ATOM      2  C   UNL     1       5.368  -1.362   0.849  1.00  0.00     0.031 C 
BRANCH   2   3
ATOM      3  C   UNL     1       6.467  -0.432   0.370  1.00  0.00    -0.075 C 
ATOM      4  C   UNL     1       7.089  -0.672  -0.801  1.00  0.00     0.008 C 
BRANCH   3   5
ATOM      5  C   UNL     1       6.927   0.723   1.252  1.00  0.00     0.008 C 
ATOM      6  C   UNL     1       5.817   1.720   1.582  1.00  0.00     0.012 C 
ATOM      7  C   UNL     1       7.602   0.227   2.534  1.00  0.00     0.012 C 
ENDBRANCH   3   5
ENDBRANCH   2   3
ENDBRANCH   1   2
BRANCH   1   8
ATOM      8  C   UNL     1       3.579  -0.656  -0.911  1.00  0.00     0.103 C 
BRANCH   8   9
ATOM      9  C   UNL     1       2.267   0.160  -1.084  1.00  0.00     0.010 C 
ATOM     10  C   UNL     1       1.954   0.551  -2.557  1.00  0.00     0.006 C 
ATOM     11  C   UNL     1       0.888  -0.316  -0.539  1.00  0.00    -0.019 C 
ATOM     12  C   UNL     1       0.421   0.647  -2.683  1.00  0.00     0.012 C 
ATOM     13  C   UNL     1      -0.089   0.712  -1.233  1.00  0.00    -0.006 C 
ATOM     14  C   UNL     1       0.665  -0.202   0.974  1.00  0.00     0.012 C 
ATOM     15  C   UNL     1      -1.540   0.348  -0.936  1.00  0.00    -0.064 C 
ATOM     16  C   UNL     1      -0.815  -0.425   1.354  1.00  0.00     0.032 C 
ATOM     17  C   UNL     1      -1.878  -0.140   0.287  1.00  0.00    -0.064 C 
ATOM     18  C   UNL     1      -2.546   0.623  -2.029  1.00  0.00     0.032 C 
ATOM     19  C   UNL     1      -3.350  -0.488   0.644  1.00  0.00    -0.008 C 
ATOM     20  C   UNL     1      -3.986   0.212  -1.721  1.00  0.00     0.009 C 
ATOM     21  C   UNL     1      -4.309   0.407  -0.231  1.00  0.00     0.007 C 
ATOM     22  C   UNL     1      -3.660  -0.198   2.134  1.00  0.00     0.014 C 
ATOM     23  C   UNL     1      -5.845   0.366   0.120  1.00  0.00    -0.006 C 
ATOM     24  C   UNL     1      -5.133  -0.354   2.490  1.00  0.00     0.033 C 
ATOM     25  C   UNL     1      -6.020   0.562   1.655  1.00  0.00     0.120 C 
ATOM     26  C   UNL     1       0.623  -1.789  -0.963  1.00  0.00     0.012 C 
ATOM     27  C   UNL     1       0.052   2.194  -0.763  1.00  0.00     0.017 C 
ATOM     28  C   UNL     1      -3.484  -2.008   0.386  1.00  0.00     0.016 C 
ATOM     29  C   UNL     1      -6.555   1.558  -0.586  1.00  0.00     0.014 C 
ATOM     30  C   UNL     1      -6.573  -0.904  -0.367  1.00  0.00     0.014 C 
BRANCH  25  31
ATOM     31  O   UNL     1      -7.366   0.337   2.069  1.00  0.00    -0.393 OA
ATOM     32  H   UNL     1      -7.911   1.065   1.727  1.00  0.00     0.210 HD
ENDBRANCH  25  31
ENDBRANCH   8   9
BRANCH   8  33
ATOM     33  C   UNL     1       3.691  -1.913  -1.760  1.00  0.00     0.306 C 
ATOM     34  O   UNL     1       3.947  -1.947  -2.954  1.00  0.00    -0.252 OA
BRANCH  33  35
ATOM     35  O   UNL     1       3.477  -3.065  -1.101  1.00  0.00    -0.481 OA
ATOM     36  H   UNL     1       3.576  -3.751  -1.794  1.00  0.00     0.296 HD
ENDBRANCH  33  35
ENDBRANCH   8  33
ENDBRANCH   1   8
TORSDOF 8
