REMARK SMILES C=C(C)[C@@H]1CC[C@]2(C(=O)O)CC[C@]3(C)[C@H](CC[C@@H]4[C@@]5(C)CC[C@H](O)C(C)(C)[C@@H]5CC[C@]43C)[C@@H]12
REMARK SMILES IDX 4 1 5 2 6 3 7 4 33 5 15 6 16 7 17 8 18 9 19 10 21 11 22 12
REMARK SMILES IDX 23 13 25 14 28 15 29 16 30 17 31 18 13 19 12 20 11 21 14 22
REMARK SMILES IDX 32 23 26 24 27 25 20 26 2 27 1 28 3 29 8 30 9 31 10 32 24 34
REMARK H PARENT 10 33 24 35
ROOT
ATOM      1  C   UNL     1       4.407   0.988   0.419  1.00  0.00     0.019 C 
ATOM      2  C   UNL     1       5.663   0.951  -0.494  1.00  0.00     0.009 C 
ATOM      3  C   UNL     1       5.193   0.500  -1.887  1.00  0.00     0.020 C 
ATOM      4  C   UNL     1       3.876  -0.234  -1.615  1.00  0.00     0.072 C 
ATOM      5  C   UNL     1       3.243   0.712  -0.564  1.00  0.00     0.017 C 
ATOM      6  C   UNL     1       1.898   0.150  -0.045  1.00  0.00     0.000 C 
ATOM      7  C   UNL     1       1.287   0.950   1.112  1.00  0.00     0.005 C 
ATOM      8  C   UNL     1       0.001   0.312   1.645  1.00  0.00     0.005 C 
ATOM      9  C   UNL     1      -1.055   0.088   0.539  1.00  0.00     0.002 C 
ATOM     10  C   UNL     1      -2.506  -0.286   1.083  1.00  0.00    -0.026 C 
ATOM     11  C   UNL     1      -3.017   0.902   1.977  1.00  0.00     0.010 C 
ATOM     12  C   UNL     1      -4.469   1.333   1.742  1.00  0.00     0.033 C 
ATOM     13  C   UNL     1      -5.413   0.168   1.470  1.00  0.00     0.120 C 
ATOM     14  C   UNL     1      -4.998  -0.643   0.200  1.00  0.00    -0.006 C 
ATOM     15  C   UNL     1      -3.470  -0.428  -0.147  1.00  0.00     0.003 C 
ATOM     16  C   UNL     1      -2.921  -1.411  -1.200  1.00  0.00     0.005 C 
ATOM     17  C   UNL     1      -1.559  -0.955  -1.731  1.00  0.00     0.008 C 
ATOM     18  C   UNL     1      -0.467  -0.792  -0.638  1.00  0.00    -0.024 C 
ATOM     19  C   UNL     1       0.863  -0.054  -1.228  1.00  0.00    -0.024 C 
ATOM     20  C   UNL     1       1.548  -0.880  -2.372  1.00  0.00     0.009 C 
ATOM     21  C   UNL     1       2.928  -0.350  -2.815  1.00  0.00     0.020 C 
ATOM     22  C   UNL     1       0.495   1.327  -1.871  1.00  0.00     0.012 C 
ATOM     23  C   UNL     1      -0.100  -2.228  -0.156  1.00  0.00     0.012 C 
ATOM     24  C   UNL     1      -5.395  -2.128   0.335  1.00  0.00     0.014 C 
ATOM     25  C   UNL     1      -5.832  -0.076  -0.986  1.00  0.00     0.014 C 
ATOM     26  C   UNL     1      -2.481  -1.551   1.971  1.00  0.00     0.012 C 
ENDROOT
BRANCH   1  27
ATOM     27  C   UNL     1       4.402   2.260   1.255  1.00  0.00    -0.077 C 
ATOM     28  C   UNL     1       3.733   3.385   0.953  1.00  0.00     0.008 C 
ATOM     29  C   UNL     1       5.244   2.194   2.505  1.00  0.00     0.039 C 
ENDBRANCH   1  27
BRANCH   4  30
ATOM     30  C   UNL     1       4.239  -1.642  -1.113  1.00  0.00     0.309 C 
ATOM     31  O   UNL     1       4.147  -2.079   0.022  1.00  0.00    -0.252 OA
BRANCH  30  32
ATOM     32  O   UNL     1       4.746  -2.432  -2.082  1.00  0.00    -0.481 OA
ATOM     33  H   UNL     1       4.940  -3.274  -1.620  1.00  0.00     0.296 HD
ENDBRANCH  30  32
ENDBRANCH   4  30
BRANCH  13  34
ATOM     34  O   UNL     1      -5.485  -0.656   2.631  1.00  0.00    -0.393 OA
ATOM     35  H   UNL     1      -5.757  -0.095   3.377  1.00  0.00     0.210 HD
ENDBRANCH  13  34
TORSDOF 4
