REMARK SMILES O=C1C=C2C=C[C@@H]3C[C@@]2(O1)[C@H]1CCCN31
REMARK SMILES IDX 13 1 12 2 11 3 9 4 8 5 7 6 15 7 14 8 6 9 5 10 4 11 3 12 2 13
REMARK SMILES IDX 1 14 10 15
REMARK H PARENT
ROOT
ATOM      1  C   UNL     1      -2.870   0.552  -0.003  1.00  0.00     0.017 C 
ATOM      2  C   UNL     1      -1.615   1.403  -0.045  1.00  0.00     0.025 C 
ATOM      3  C   UNL     1      -0.541   0.478   0.524  1.00  0.00     0.106 C 
ATOM      4  C   UNL     1       0.822   0.507  -0.211  1.00  0.00     0.155 C 
ATOM      5  C   UNL     1       0.610  -0.540  -1.295  1.00  0.00     0.079 C 
ATOM      6  C   UNL     1      -0.023  -1.636  -0.419  1.00  0.00     0.084 C 
ATOM      7  N   UNL     1      -1.069  -0.920   0.350  1.00  0.00    -0.289 NA
ATOM      8  C   UNL     1      -2.345  -0.822  -0.371  1.00  0.00     0.085 C 
ATOM      9  C   UNL     1       1.003  -2.143   0.593  1.00  0.00    -0.008 C 
ATOM     10  C   UNL     1       1.963  -1.333   1.082  1.00  0.00     0.005 C 
ATOM     11  C   UNL     1       1.956   0.040   0.646  1.00  0.00     0.004 C 
ATOM     12  C   UNL     1       2.845   1.008   0.822  1.00  0.00     0.101 C 
ATOM     13  C   UNL     1       2.364   2.133   0.014  1.00  0.00     0.332 C 
ATOM     14  O   UNL     1       2.925   3.211  -0.066  1.00  0.00    -0.247 OA
ATOM     15  O   UNL     1       1.226   1.784  -0.658  1.00  0.00    -0.449 OA
ENDROOT
TORSDOF 0
