REMARK SMILES CC1=CC(=O)[C@]2(C)[C@@H](O)[C@H]3CC(C)(C)C[C@H]3[C@]12O
REMARK SMILES IDX 1 1 2 2 3 3 4 4 5 5 6 6 17 7 16 8 15 9 12 10 11 11 10 12
REMARK SMILES IDX 8 13 13 14 14 15 7 16 18 17 9 19
REMARK H PARENT 18 18 9 20
ROOT
ATOM      1  C   UNL     1      -2.048   2.591   1.435  1.00  0.00     0.043 C 
ATOM      2  C   UNL     1      -2.067   1.115   1.202  1.00  0.00    -0.037 C 
ATOM      3  C   UNL     1      -2.707   0.234   1.977  1.00  0.00     0.050 C 
ATOM      4  C   UNL     1      -2.462  -1.088   1.390  1.00  0.00     0.167 C 
ATOM      5  O   UNL     1      -2.844  -2.114   1.932  1.00  0.00    -0.294 OA
ATOM      6  C   UNL     1      -1.739  -0.997   0.062  1.00  0.00     0.089 C 
ATOM      7  C   UNL     1      -1.308   0.496   0.049  1.00  0.00     0.104 C 
ATOM      8  C   UNL     1       0.216   0.516   0.279  1.00  0.00     0.032 C 
ATOM      9  C   UNL     1       1.107   0.780  -0.935  1.00  0.00     0.013 C 
ATOM     10  C   UNL     1       2.449   0.125  -0.561  1.00  0.00    -0.035 C 
ATOM     11  C   UNL     1       2.058  -1.106   0.291  1.00  0.00     0.013 C 
ATOM     12  C   UNL     1       0.605  -0.895   0.734  1.00  0.00     0.026 C 
ATOM     13  C   UNL     1      -0.444  -1.822   0.099  1.00  0.00     0.134 C 
ATOM     14  C   UNL     1       3.225  -0.289  -1.815  1.00  0.00     0.011 C 
ATOM     15  C   UNL     1       3.316   1.093   0.263  1.00  0.00     0.011 C 
ATOM     16  C   UNL     1      -2.722  -1.410  -1.036  1.00  0.00     0.026 C 
ENDROOT
BRANCH   7  17
ATOM     17  O   UNL     1      -1.657   1.166  -1.149  1.00  0.00    -0.384 OA
ATOM     18  H   UNL     1      -2.618   1.317  -1.152  1.00  0.00     0.211 HD
ENDBRANCH   7  17
BRANCH  13  19
ATOM     19  O   UNL     1      -0.063  -2.279  -1.196  1.00  0.00    -0.392 OA
ATOM     20  H   UNL     1      -0.074  -1.535  -1.821  1.00  0.00     0.211 HD
ENDBRANCH  13  19
TORSDOF 2
