REMARK SMILES C=C(CCC(C)C1CCC2C3=C(C(=O)CC21C)C1(C)CCC(=O)[C@@H](C)C1CC3=O)C(C)C(=O)O
REMARK SMILES IDX 2 1 1 2 3 3 4 4 5 5 6 6 7 7 24 8 26 9 22 10 27 11 18 12
REMARK SMILES IDX 21 13 23 14 28 15 12 16 20 17 29 18 11 19 13 20 10 21 14 22
REMARK SMILES IDX 15 23 16 24 9 25 8 26 25 27 19 28 17 29 30 30 31 31 32 32
REMARK SMILES IDX 33 33 34 34
REMARK H PARENT 34 35
ROOT
ATOM      1  C   UNL     1       5.911  -0.645  -0.411  1.00  0.00    -0.064 C 
ATOM      2  C   UNL     1       6.200  -1.390  -1.495  1.00  0.00     0.008 C 
ENDROOT
BRANCH   1   3
ATOM      3  C   UNL     1       5.469  -1.334   0.873  1.00  0.00     0.031 C 
BRANCH   3   4
ATOM      4  C   UNL     1       4.050  -0.979   1.352  1.00  0.00     0.008 C 
BRANCH   4   5
ATOM      5  C   UNL     1       2.906  -1.250   0.339  1.00  0.00    -0.010 C 
ATOM      6  C   UNL     1       2.870  -2.748  -0.006  1.00  0.00     0.008 C 
BRANCH   5   7
ATOM      7  C   UNL     1       1.522  -0.793   0.889  1.00  0.00    -0.001 C 
ATOM      8  C   UNL     1      -6.248   1.348  -0.155  1.00  0.00     0.057 C 
ATOM      9  C   UNL     1      -4.744   1.112   0.135  1.00  0.00     0.017 C 
ATOM     10  C   UNL     1      -7.016   0.037  -0.100  1.00  0.00     0.136 C 
ATOM     11  C   UNL     1      -3.916   2.342  -0.230  1.00  0.00     0.086 C 
ATOM     12  C   UNL     1      -4.193  -0.174  -0.561  1.00  0.00     0.001 C 
ATOM     13  C   UNL     1      -6.348  -1.110   0.608  1.00  0.00     0.077 C 
ATOM     14  O   UNL     1      -8.155  -0.061  -0.553  1.00  0.00    -0.299 OA
ATOM     15  C   UNL     1      -2.454   2.137   0.075  1.00  0.00     0.159 C 
ATOM     16  C   UNL     1      -2.677  -0.276  -0.320  1.00  0.00     0.008 C 
ATOM     17  C   UNL     1      -4.959  -1.399   0.041  1.00  0.00     0.020 C 
ATOM     18  O   UNL     1      -1.731   3.103   0.313  1.00  0.00    -0.295 OA
ATOM     19  C   UNL     1      -1.874   0.754   0.015  1.00  0.00     0.006 C 
ATOM     20  C   UNL     1      -2.014  -1.611  -0.502  1.00  0.00     0.160 C 
ATOM     21  C   UNL     1      -0.377   0.682   0.224  1.00  0.00     0.030 C 
ATOM     22  O   UNL     1      -2.578  -2.520  -1.106  1.00  0.00    -0.294 OA
ATOM     23  C   UNL     1      -0.665  -1.835   0.135  1.00  0.00     0.088 C 
ATOM     24  C   UNL     1       0.309  -0.676  -0.126  1.00  0.00    -0.015 C 
ATOM     25  C   UNL     1       0.072   0.966   1.656  1.00  0.00     0.009 C 
ATOM     26  C   UNL     1       1.536   0.564   1.610  1.00  0.00     0.005 C 
ATOM     27  C   UNL     1      -6.891   2.328   0.827  1.00  0.00     0.016 C 
ATOM     28  C   UNL     1      -4.416  -0.133  -2.095  1.00  0.00     0.017 C 
ATOM     29  C   UNL     1       0.701  -0.641  -1.617  1.00  0.00     0.013 C 
ENDBRANCH   5   7
ENDBRANCH   4   5
ENDBRANCH   3   4
ENDBRANCH   1   3
BRANCH   1  30
ATOM     30  C   UNL     1       6.017   0.881  -0.367  1.00  0.00     0.121 C 
ATOM     31  C   UNL     1       6.245   1.576  -1.712  1.00  0.00     0.025 C 
BRANCH  30  32
ATOM     32  C   UNL     1       7.134   1.316   0.576  1.00  0.00     0.310 C 
ATOM     33  O   UNL     1       8.184   0.740   0.813  1.00  0.00    -0.252 OA
BRANCH  32  34
ATOM     34  O   UNL     1       6.873   2.504   1.164  1.00  0.00    -0.481 OA
ATOM     35  H   UNL     1       7.667   2.668   1.717  1.00  0.00     0.296 HD
ENDBRANCH  32  34
ENDBRANCH  30  32
ENDBRANCH   1  30
TORSDOF 7
