REMARK SMILES COC[C@H]1Cc2cc(OC)c(OC)cc2[C@@H](c2ccc(OC)c(OC)c2)[C@@H]1COC
REMARK SMILES IDX 4 1 5 2 6 3 7 4 8 5 11 6 14 7 15 8 16 9 27 10 3 11 2 12 1 13
REMARK SMILES IDX 28 14 29 15 30 16 17 17 26 18 18 19 23 20 19 21 20 22 24 23
REMARK SMILES IDX 25 24 21 25 22 26 9 27 10 28 12 29 13 30
REMARK H PARENT
ROOT
ATOM      1  C   UNL     1       1.667   2.054  -0.872  1.00  0.00     0.026 C 
ATOM      2  C   UNL     1       2.473   1.375   0.244  1.00  0.00     0.042 C 
ATOM      3  C   UNL     1       2.290  -0.120   0.259  1.00  0.00    -0.040 A 
ATOM      4  C   UNL     1       3.291  -0.916   0.846  1.00  0.00     0.054 A 
ATOM      5  C   UNL     1       3.181  -2.310   0.880  1.00  0.00     0.161 A 
ATOM      6  C   UNL     1       2.047  -2.922   0.322  1.00  0.00     0.161 A 
ATOM      7  C   UNL     1       1.052  -2.129  -0.260  1.00  0.00     0.055 A 
ATOM      8  C   UNL     1       1.141  -0.722  -0.273  1.00  0.00    -0.033 A 
ATOM      9  C   UNL     1       0.021   0.107  -0.910  1.00  0.00     0.055 C 
ATOM     10  C   UNL     1       0.171   1.650  -0.708  1.00  0.00     0.032 C 
ENDROOT
BRANCH   1  11
ATOM     11  C   UNL     1       1.929   3.571  -0.821  1.00  0.00     0.164 C 
BRANCH  11  12
ATOM     12  O   UNL     1       1.740   4.175  -2.100  1.00  0.00    -0.384 OA
ATOM     13  C   UNL     1       2.905   4.143  -2.914  1.00  0.00     0.194 C 
ENDBRANCH  11  12
ENDBRANCH   1  11
BRANCH  10  14
ATOM     14  C   UNL     1      -0.764   2.415  -1.671  1.00  0.00     0.164 C 
BRANCH  14  15
ATOM     15  O   UNL     1      -1.151   3.677  -1.121  1.00  0.00    -0.384 OA
ATOM     16  C   UNL     1      -2.302   3.589  -0.289  1.00  0.00     0.194 C 
ENDBRANCH  14  15
ENDBRANCH  10  14
BRANCH   9  17
ATOM     17  C   UNL     1      -1.365  -0.356  -0.443  1.00  0.00    -0.036 A 
ATOM     18  C   UNL     1      -1.728  -0.307   0.914  1.00  0.00     0.054 A 
ATOM     19  C   UNL     1      -2.293  -0.844  -1.371  1.00  0.00     0.008 A 
ATOM     20  C   UNL     1      -2.995  -0.727   1.338  1.00  0.00     0.161 A 
ATOM     21  C   UNL     1      -3.563  -1.258  -0.959  1.00  0.00     0.051 A 
ATOM     22  C   UNL     1      -3.925  -1.199   0.390  1.00  0.00     0.160 A 
BRANCH  20  23
ATOM     23  O   UNL     1      -3.421  -0.703   2.643  1.00  0.00    -0.493 OA
ATOM     24  C   UNL     1      -2.455  -0.413   3.643  1.00  0.00     0.278 C 
ENDBRANCH  20  23
BRANCH  22  25
ATOM     25  O   UNL     1      -5.147  -1.582   0.883  1.00  0.00    -0.493 OA
ATOM     26  C   UNL     1      -6.122  -2.033  -0.046  1.00  0.00     0.278 C 
ENDBRANCH  22  25
ENDBRANCH   9  17
BRANCH   5  27
ATOM     27  O   UNL     1       4.114  -3.151   1.431  1.00  0.00    -0.493 OA
ATOM     28  C   UNL     1       5.282  -2.569   1.990  1.00  0.00     0.278 C 
ENDBRANCH   5  27
BRANCH   6  29
ATOM     29  O   UNL     1       2.007  -4.294   0.378  1.00  0.00    -0.493 OA
ATOM     30  C   UNL     1       0.770  -4.923   0.076  1.00  0.00     0.278 C 
ENDBRANCH   6  29
TORSDOF 9
