REMARK SMILES COc1cc(O)c2c(=O)c3c(OC)c(OC)ccc3oc2c1
REMARK SMILES IDX 14 1 11 2 10 3 19 4 18 5 17 6 20 7 21 8 22 9 3 10 4 11 5 12
REMARK SMILES IDX 7 13 8 14 9 15 15 16 16 17 12 18 13 19 6 20 2 22 1 23
REMARK H PARENT 6 21
ROOT
ATOM      1  C   UNL     1      -3.400   0.443  -0.381  1.00  0.00     0.161 A 
ATOM      2  C   UNL     1      -2.414  -0.448   0.091  1.00  0.00     0.175 A 
ATOM      3  C   UNL     1      -1.059  -0.076   0.100  1.00  0.00     0.111 A 
ATOM      4  C   UNL     1      -0.698   1.192  -0.351  1.00  0.00     0.142 A 
ATOM      5  C   UNL     1      -1.674   2.089  -0.790  1.00  0.00     0.052 A 
ATOM      6  C   UNL     1      -3.020   1.718  -0.804  1.00  0.00     0.054 A 
ATOM      7  O   UNL     1       0.592   1.656  -0.399  1.00  0.00    -0.455 OA
ATOM      8  C   UNL     1       1.608   0.763  -0.171  1.00  0.00     0.146 A 
ATOM      9  C   UNL     1       2.897   1.239  -0.427  1.00  0.00     0.094 A 
ATOM     10  C   UNL     1       4.011   0.421  -0.234  1.00  0.00     0.126 A 
ATOM     11  C   UNL     1       3.826  -0.885   0.219  1.00  0.00     0.093 A 
ATOM     12  C   UNL     1       2.534  -1.360   0.481  1.00  0.00     0.134 A 
ATOM     13  C   UNL     1       1.416  -0.535   0.295  1.00  0.00     0.107 A 
ATOM     14  C   UNL     1       0.027  -0.957   0.590  1.00  0.00     0.208 C 
ATOM     15  O   UNL     1      -0.212  -1.955   1.255  1.00  0.00    -0.288 OA
ENDROOT
BRANCH   1  16
ATOM     16  O   UNL     1      -4.690  -0.022  -0.382  1.00  0.00    -0.493 OA
ATOM     17  C   UNL     1      -5.682   0.788  -0.997  1.00  0.00     0.278 C 
ENDBRANCH   1  16
BRANCH   2  18
ATOM     18  O   UNL     1      -2.790  -1.725   0.435  1.00  0.00    -0.492 OA
ATOM     19  C   UNL     1      -3.233  -1.768   1.791  1.00  0.00     0.278 C 
ENDBRANCH   2  18
BRANCH  12  20
ATOM     20  O   UNL     1       2.386  -2.652   0.900  1.00  0.00    -0.507 OA
ATOM     21  H   UNL     1       3.248  -3.062   1.071  1.00  0.00     0.293 HD
ENDBRANCH  12  20
BRANCH  10  22
ATOM     22  O   UNL     1       5.208   1.011  -0.526  1.00  0.00    -0.496 OA
ATOM     23  C   UNL     1       6.381   0.227  -0.344  1.00  0.00     0.278 C 
ENDBRANCH  10  22
TORSDOF 4
