REMARK SMILES COC[C@@H](Cc1ccc(OC)c(OC)c1)[C@@H](COC)Cc1ccc(OC)c(OC)c1
REMARK SMILES IDX 4 1 3 2 2 3 1 4 5 5 6 6 15 7 7 8 12 9 8 10 9 11 13 12 14 13
REMARK SMILES IDX 10 14 11 15 16 16 20 17 21 18 30 19 22 20 27 21 23 22 24 23
REMARK SMILES IDX 28 24 29 25 25 26 26 27 17 28 18 29 19 30
REMARK H PARENT
ROOT
ATOM      1  C   UNL     1      -0.706   0.158  -0.719  1.00  0.00     0.025 C 
ENDROOT
BRANCH   1   2
ATOM      2  C   UNL     1      -1.356  -0.965  -1.560  1.00  0.00     0.164 C 
BRANCH   2   3
ATOM      3  O   UNL     1      -1.284  -2.203  -0.851  1.00  0.00    -0.384 OA
ATOM      4  C   UNL     1      -1.818  -3.271  -1.622  1.00  0.00     0.194 C 
ENDBRANCH   2   3
ENDBRANCH   1   2
BRANCH   1   5
ATOM      5  C   UNL     1      -1.509   0.361   0.597  1.00  0.00     0.042 C 
BRANCH   5   6
ATOM      6  C   UNL     1      -2.982   0.650   0.404  1.00  0.00    -0.044 A 
ATOM      7  C   UNL     1      -3.939  -0.338   0.683  1.00  0.00     0.054 A 
ATOM      8  C   UNL     1      -3.408   1.895  -0.066  1.00  0.00     0.008 A 
ATOM      9  C   UNL     1      -5.304  -0.090   0.493  1.00  0.00     0.160 A 
ATOM     10  C   UNL     1      -4.768   2.155  -0.254  1.00  0.00     0.051 A 
ATOM     11  C   UNL     1      -5.723   1.171   0.022  1.00  0.00     0.160 A 
BRANCH   9  12
ATOM     12  O   UNL     1      -6.300  -1.005   0.735  1.00  0.00    -0.493 OA
ATOM     13  C   UNL     1      -5.911  -2.295   1.184  1.00  0.00     0.278 C 
ENDBRANCH   9  12
BRANCH  11  14
ATOM     14  O   UNL     1      -7.077   1.337  -0.137  1.00  0.00    -0.493 OA
ATOM     15  C   UNL     1      -7.537   2.604  -0.584  1.00  0.00     0.278 C 
ENDBRANCH  11  14
ENDBRANCH   5   6
ENDBRANCH   1   5
BRANCH   1  16
ATOM     16  C   UNL     1       0.823  -0.117  -0.432  1.00  0.00     0.025 C 
BRANCH  16  17
ATOM     17  C   UNL     1       1.445   0.976   0.480  1.00  0.00     0.042 C 
BRANCH  17  18
ATOM     18  C   UNL     1       2.882   0.721   0.886  1.00  0.00    -0.044 A 
ATOM     19  C   UNL     1       3.898   1.613   0.510  1.00  0.00     0.054 A 
ATOM     20  C   UNL     1       3.215  -0.399   1.655  1.00  0.00     0.008 A 
ATOM     21  C   UNL     1       5.229   1.384   0.881  1.00  0.00     0.160 A 
ATOM     22  C   UNL     1       4.539  -0.636   2.030  1.00  0.00     0.051 A 
ATOM     23  C   UNL     1       5.553   0.247   1.647  1.00  0.00     0.160 A 
BRANCH  21  24
ATOM     24  O   UNL     1       6.280   2.203   0.546  1.00  0.00    -0.493 OA
ATOM     25  C   UNL     1       5.996   3.361  -0.225  1.00  0.00     0.278 C 
ENDBRANCH  21  24
BRANCH  23  26
ATOM     26  O   UNL     1       6.879   0.092   1.968  1.00  0.00    -0.493 OA
ATOM     27  C   UNL     1       7.240  -1.034   2.754  1.00  0.00     0.278 C 
ENDBRANCH  23  26
ENDBRANCH  17  18
ENDBRANCH  16  17
BRANCH  16  28
ATOM     28  C   UNL     1       1.648  -0.204  -1.746  1.00  0.00     0.164 C 
BRANCH  28  29
ATOM     29  O   UNL     1       1.413  -1.391  -2.501  1.00  0.00    -0.384 OA
ATOM     30  C   UNL     1       2.092  -2.527  -1.983  1.00  0.00     0.194 C 
ENDBRANCH  28  29
ENDBRANCH  16  28
ENDBRANCH   1  16
TORSDOF 13
