REMARK SMILES C[C@@H]1O[C@H](OC[C@@H](O)[C@@H]2O[C@@H](Oc3c(-c4ccc(O)c(O)c4)oc4cc(O)cc(O)c4c3=O)[C@H](O)[C@@H]2O)[C@@H](O)[C@@H](O)[C@H]1O
REMARK SMILES IDX 9 1 10 2 11 3 34 4 36 5 7 6 6 7 5 8 4 9 2 10 3 11 42 12
REMARK SMILES IDX 40 13 38 14 1 15 43 16 41 18 39 20 8 22 37 24 12 26 13 27
REMARK SMILES IDX 14 28 32 29 23 30 31 31 33 32 24 33 29 34 25 35 28 36 26 37
REMARK SMILES IDX 15 38 16 39 22 40 17 41 20 42 18 43 21 44 19 46 30 48 27 50
REMARK SMILES IDX 35 52
REMARK H PARENT 43 17 41 19 39 21 8 23 37 25 21 45 19 47 30 49 27 51 35 53
ROOT
ATOM      1  C   UNL     1       0.138  -0.765  -0.591  1.00  0.00     0.185 C 
ATOM      2  O   UNL     1      -1.134  -1.021   0.067  1.00  0.00    -0.332 OA
ATOM      3  C   UNL     1      -1.690  -2.223  -0.491  1.00  0.00     0.339 C 
ATOM      4  C   UNL     1      -0.805  -2.646  -1.669  1.00  0.00     0.214 C 
ATOM      5  C   UNL     1       0.539  -2.079  -1.258  1.00  0.00     0.181 C 
ENDROOT
BRANCH   1   6
ATOM      6  C   UNL     1       1.134  -0.204   0.432  1.00  0.00     0.172 C 
BRANCH   6   7
ATOM      7  C   UNL     1       2.566  -0.101  -0.106  1.00  0.00     0.198 C 
BRANCH   7   8
ATOM      8  O   UNL     1       3.382   0.482   0.925  1.00  0.00    -0.347 OA
BRANCH   8   9
ATOM      9  C   UNL     1       4.755   0.570   0.521  1.00  0.00     0.281 C 
ATOM     10  C   UNL     1       6.238   1.444  -1.117  1.00  0.00     0.150 C 
ATOM     11  O   UNL     1       4.916   1.494  -0.548  1.00  0.00    -0.344 OA
ATOM     12  C   UNL     1       7.342   1.191  -0.066  1.00  0.00     0.174 C 
ATOM     13  C   UNL     1       6.905   1.676   1.319  1.00  0.00     0.179 C 
ATOM     14  C   UNL     1       5.551   1.076   1.741  1.00  0.00     0.202 C 
ATOM     15  C   UNL     1       6.446   2.777  -1.827  1.00  0.00     0.041 C 
BRANCH  12  16
ATOM     16  O   UNL     1       7.599  -0.223   0.011  1.00  0.00    -0.388 OA
ATOM     17  H   UNL     1       8.197  -0.332   0.778  1.00  0.00     0.211 HD
ENDBRANCH  12  16
BRANCH  13  18
ATOM     18  O   UNL     1       7.922   1.339   2.279  1.00  0.00    -0.387 OA
ATOM     19  H   UNL     1       7.482   0.720   2.904  1.00  0.00     0.211 HD
ENDBRANCH  13  18
BRANCH  14  20
ATOM     20  O   UNL     1       5.759   0.026   2.709  1.00  0.00    -0.385 OA
ATOM     21  H   UNL     1       4.874  -0.354   2.876  1.00  0.00     0.211 HD
ENDBRANCH  14  20
ENDBRANCH   8   9
ENDBRANCH   7   8
ENDBRANCH   6   7
BRANCH   6  22
ATOM     22  O   UNL     1       0.714   1.124   0.813  1.00  0.00    -0.388 OA
ATOM     23  H   UNL     1       1.454   1.481   1.340  1.00  0.00     0.211 HD
ENDBRANCH   6  22
ENDBRANCH   1   6
BRANCH   5  24
ATOM     24  O   UNL     1       1.176  -2.975  -0.339  1.00  0.00    -0.387 OA
ATOM     25  H   UNL     1       0.977  -3.873  -0.683  1.00  0.00     0.211 HD
ENDBRANCH   5  24
BRANCH   3  26
ATOM     26  O   UNL     1      -3.067  -2.167  -0.906  1.00  0.00    -0.454 OA
BRANCH  26  27
ATOM     27  C   UNL     1      -3.607  -0.896  -0.818  1.00  0.00     0.214 C 
ATOM     28  C   UNL     1      -4.587  -0.580   0.047  1.00  0.00     0.180 C 
ATOM     29  C   UNL     1      -3.123   0.161  -1.754  1.00  0.00     0.239 C 
ATOM     30  O   UNL     1      -5.134   0.683   0.183  1.00  0.00    -0.452 OA
ATOM     31  C   UNL     1      -3.566   1.543  -1.471  1.00  0.00     0.111 A 
ATOM     32  O   UNL     1      -2.411  -0.138  -2.706  1.00  0.00    -0.285 OA
ATOM     33  C   UNL     1      -4.566   1.719  -0.512  1.00  0.00     0.146 A 
ATOM     34  C   UNL     1      -3.036   2.668  -2.118  1.00  0.00     0.134 A 
ATOM     35  C   UNL     1      -5.047   2.995  -0.214  1.00  0.00     0.094 A 
ATOM     36  C   UNL     1      -3.510   3.950  -1.818  1.00  0.00     0.093 A 
ATOM     37  C   UNL     1      -4.516   4.099  -0.869  1.00  0.00     0.123 A 
BRANCH  28  38
ATOM     38  C   UNL     1      -5.167  -1.563   0.982  1.00  0.00     0.025 A 
ATOM     39  C   UNL     1      -5.748  -2.756   0.516  1.00  0.00     0.016 A 
ATOM     40  C   UNL     1      -5.168  -1.297   2.358  1.00  0.00     0.062 A 
ATOM     41  C   UNL     1      -6.311  -3.678   1.406  1.00  0.00     0.051 A 
ATOM     42  C   UNL     1      -5.728  -2.216   3.235  1.00  0.00     0.158 A 
ATOM     43  C   UNL     1      -6.294  -3.399   2.766  1.00  0.00     0.157 A 
BRANCH  42  44
ATOM     44  O   UNL     1      -5.720  -1.950   4.575  1.00  0.00    -0.504 OA
ATOM     45  H   UNL     1      -6.157  -2.725   4.981  1.00  0.00     0.293 HD
ENDBRANCH  42  44
BRANCH  43  46
ATOM     46  O   UNL     1      -6.828  -4.257   3.687  1.00  0.00    -0.504 OA
ATOM     47  H   UNL     1      -7.185  -5.027   3.212  1.00  0.00     0.293 HD
ENDBRANCH  43  46
ENDBRANCH  28  38
BRANCH  34  48
ATOM     48  O   UNL     1      -2.040   2.537  -3.045  1.00  0.00    -0.507 OA
ATOM     49  H   UNL     1      -1.740   3.408  -3.348  1.00  0.00     0.293 HD
ENDBRANCH  34  48
BRANCH  37  50
ATOM     50  O   UNL     1      -5.014   5.325  -0.544  1.00  0.00    -0.508 OA
ATOM     51  H   UNL     1      -4.539   6.010  -1.044  1.00  0.00     0.293 HD
ENDBRANCH  37  50
ENDBRANCH  26  27
ENDBRANCH   3  26
BRANCH   4  52
ATOM     52  O   UNL     1      -0.726  -4.066  -1.844  1.00  0.00    -0.384 OA
ATOM     53  H   UNL     1      -1.625  -4.354  -2.091  1.00  0.00     0.211 HD
ENDBRANCH   4  52
TORSDOF 17
