REMARK SMILES O=c1cc(-c2ccc(O)c(O)c2)oc2cc(O[C@@H]3O[C@H]([C@H](O)CO)[C@H](O)[C@H]3O)cc(O)c12
REMARK SMILES IDX 18 1 19 2 20 3 25 4 27 5 17 6 16 7 1 8 2 9 3 10 32 11 4 12
REMARK SMILES IDX 30 13 14 14 13 15 29 16 15 17 5 18 6 19 12 20 7 21 10 22
REMARK SMILES IDX 8 23 11 24 9 26 31 28 28 30 21 32 22 33 23 35 24 36 26 38
REMARK H PARENT 11 25 9 27 31 29 28 31 22 34 24 37 26 39
ROOT
ATOM      1  C   UNL     1      -3.090  -1.633  -0.622  1.00  0.00     0.339 C 
ATOM      2  O   UNL     1      -4.062  -1.075  -1.550  1.00  0.00    -0.332 OA
ATOM      3  C   UNL     1      -5.213  -0.657  -0.798  1.00  0.00     0.185 C 
ATOM      4  C   UNL     1      -5.237  -1.574   0.420  1.00  0.00     0.181 C 
ATOM      5  C   UNL     1      -3.764  -1.689   0.760  1.00  0.00     0.214 C 
ENDROOT
BRANCH   1   6
ATOM      6  O   UNL     1      -1.975  -0.740  -0.602  1.00  0.00    -0.462 OA
BRANCH   6   7
ATOM      7  C   UNL     1      -0.745  -1.218  -0.251  1.00  0.00     0.130 A 
ATOM      8  O   UNL     1       3.600  -3.341   1.132  1.00  0.00    -0.289 OA
ATOM      9  C   UNL     1       3.284  -2.229   0.725  1.00  0.00     0.197 C 
ATOM     10  C   UNL     1       4.280  -1.163   0.542  1.00  0.00     0.100 C 
ATOM     11  C   UNL     1       1.891  -1.905   0.397  1.00  0.00     0.107 A 
ATOM     12  C   UNL     1       3.876   0.030   0.084  1.00  0.00     0.138 C 
ATOM     13  C   UNL     1       0.863  -2.841   0.536  1.00  0.00     0.134 A 
ATOM     14  C   UNL     1       1.602  -0.626  -0.062  1.00  0.00     0.146 A 
ATOM     15  O   UNL     1       2.560   0.344  -0.221  1.00  0.00    -0.456 OA
ATOM     16  C   UNL     1      -0.453  -2.499   0.217  1.00  0.00     0.093 A 
ATOM     17  C   UNL     1       0.289  -0.283  -0.385  1.00  0.00     0.094 A 
BRANCH  12  18
ATOM     18  C   UNL     1       4.823   1.145  -0.112  1.00  0.00     0.021 A 
ATOM     19  C   UNL     1       6.066   0.949  -0.744  1.00  0.00     0.016 A 
ATOM     20  C   UNL     1       4.478   2.436   0.315  1.00  0.00     0.062 A 
ATOM     21  C   UNL     1       6.954   2.015  -0.935  1.00  0.00     0.051 A 
ATOM     22  C   UNL     1       5.366   3.486   0.124  1.00  0.00     0.158 A 
ATOM     23  C   UNL     1       6.595   3.281  -0.495  1.00  0.00     0.157 A 
BRANCH  22  24
ATOM     24  O   UNL     1       5.019   4.736   0.552  1.00  0.00    -0.504 OA
ATOM     25  H   UNL     1       5.781   5.300   0.310  1.00  0.00     0.293 HD
ENDBRANCH  22  24
BRANCH  23  26
ATOM     26  O   UNL     1       7.417   4.362  -0.651  1.00  0.00    -0.504 OA
ATOM     27  H   UNL     1       8.227   4.067  -1.101  1.00  0.00     0.293 HD
ENDBRANCH  23  26
ENDBRANCH  12  18
BRANCH  13  28
ATOM     28  O   UNL     1       1.078  -4.117   0.983  1.00  0.00    -0.507 OA
ATOM     29  H   UNL     1       2.037  -4.220   1.176  1.00  0.00     0.293 HD
ENDBRANCH  13  28
ENDBRANCH   6   7
ENDBRANCH   1   6
BRANCH   5  30
ATOM     30  O   UNL     1      -3.513  -2.904   1.467  1.00  0.00    -0.384 OA
ATOM     31  H   UNL     1      -4.110  -2.890   2.240  1.00  0.00     0.211 HD
ENDBRANCH   5  30
BRANCH   3  32
ATOM     32  C   UNL     1      -5.145   0.851  -0.474  1.00  0.00     0.171 C 
BRANCH  32  33
ATOM     33  O   UNL     1      -6.312   1.215   0.273  1.00  0.00    -0.388 OA
ATOM     34  H   UNL     1      -6.243   2.171   0.463  1.00  0.00     0.211 HD
ENDBRANCH  32  33
BRANCH  32  35
ATOM     35  C   UNL     1      -5.049   1.690  -1.759  1.00  0.00     0.190 C 
BRANCH  35  36
ATOM     36  O   UNL     1      -3.777   1.569  -2.381  1.00  0.00    -0.394 OA
ATOM     37  H   UNL     1      -3.578   0.612  -2.458  1.00  0.00     0.210 HD
ENDBRANCH  35  36
ENDBRANCH  32  35
ENDBRANCH   3  32
BRANCH   4  38
ATOM     38  O   UNL     1      -5.987  -1.136   1.545  1.00  0.00    -0.387 OA
ATOM     39  H   UNL     1      -6.479  -0.329   1.281  1.00  0.00     0.211 HD
ENDBRANCH   4  38
TORSDOF 12
