REMARK SMILES CC1(C)C=Cc2c(cc(O)c3c(=O)c(-c4ccc(O)cc4)coc23)O1
REMARK SMILES IDX 1 1 2 2 3 3 4 4 5 5 6 6 7 7 8 8 9 9 11 10 24 11 23 12 22 13
REMARK SMILES IDX 14 14 12 15 13 16 25 17 10 18 15 20 16 21 21 22 17 23 20 24
REMARK SMILES IDX 18 25 19 26
REMARK H PARENT 10 19 19 27
ROOT
ATOM      1  C   UNL     1      -5.546   1.210   1.303  1.00  0.00     0.061 C 
ATOM      2  C   UNL     1      -4.735   0.047   0.721  1.00  0.00     0.122 C 
ATOM      3  C   UNL     1      -5.685  -1.063   0.257  1.00  0.00     0.061 C 
ATOM      4  C   UNL     1      -3.812  -0.499   1.784  1.00  0.00     0.021 C 
ATOM      5  C   UNL     1      -2.483  -0.531   1.659  1.00  0.00     0.015 C 
ATOM      6  C   UNL     1      -1.888  -0.014   0.431  1.00  0.00     0.060 A 
ATOM      7  C   UNL     1      -2.729   0.500  -0.562  1.00  0.00     0.135 A 
ATOM      8  C   UNL     1      -2.197   1.006  -1.751  1.00  0.00     0.094 A 
ATOM      9  C   UNL     1      -0.822   1.001  -1.955  1.00  0.00     0.134 A 
ATOM     10  C   UNL     1       0.033   0.491  -0.973  1.00  0.00     0.108 A 
ATOM     11  C   UNL     1      -0.497  -0.015   0.217  1.00  0.00     0.152 A 
ATOM     12  O   UNL     1       0.310  -0.526   1.209  1.00  0.00    -0.463 OA
ATOM     13  C   UNL     1       1.667  -0.531   1.009  1.00  0.00     0.208 C 
ATOM     14  C   UNL     1       2.323  -0.076  -0.068  1.00  0.00     0.065 C 
ATOM     15  C   UNL     1       1.493   0.476  -1.170  1.00  0.00     0.204 C 
ATOM     16  O   UNL     1       1.970   0.914  -2.213  1.00  0.00    -0.288 OA
ATOM     17  O   UNL     1      -4.091   0.553  -0.464  1.00  0.00    -0.483 OA
ENDROOT
BRANCH   9  18
ATOM     18  O   UNL     1      -0.377   1.513  -3.144  1.00  0.00    -0.507 OA
ATOM     19  H   UNL     1       0.605   1.453  -3.157  1.00  0.00     0.293 HD
ENDBRANCH   9  18
BRANCH  14  20
ATOM     20  C   UNL     1       3.792  -0.160  -0.147  1.00  0.00    -0.011 A 
ATOM     21  C   UNL     1       4.411  -0.751  -1.258  1.00  0.00     0.013 A 
ATOM     22  C   UNL     1       4.601   0.348   0.883  1.00  0.00     0.013 A 
ATOM     23  C   UNL     1       5.803  -0.842  -1.333  1.00  0.00     0.047 A 
ATOM     24  C   UNL     1       5.995   0.260   0.808  1.00  0.00     0.047 A 
ATOM     25  C   UNL     1       6.583  -0.338  -0.301  1.00  0.00     0.115 A 
BRANCH  25  26
ATOM     26  O   UNL     1       7.937  -0.446  -0.416  1.00  0.00    -0.508 OA
ATOM     27  H   UNL     1       8.351  -0.024   0.354  1.00  0.00     0.293 HD
ENDBRANCH  25  26
ENDBRANCH  14  20
TORSDOF 3
