REMARK SMILES CC[C@H]1C=C[C@@H]([C@@H](O)C=C(C)C)OC(=O)/C(C)=C\C/C(O)=N\c2cc(O)cc3c2O[C@@]2(CC1)CC(=O)[C@@H](C)C3O2
REMARK SMILES IDX 19 1 20 2 22 3 23 4 31 5 30 6 34 7 40 8 29 9 35 10 39 11
REMARK SMILES IDX 28 12 36 13 37 14 27 15 24 16 25 17 38 18 32 19 33 20 3 21
REMARK SMILES IDX 2 23 1 24 26 25 21 27 18 29 16 30 17 31 14 32 15 33 13 34
REMARK SMILES IDX 6 35 5 36 4 37 7 39 8 40 9 42 10 43 11 44 12 45
REMARK H PARENT 26 26 21 28 8 41
REMARK Flexibility Score:   77.900
ROOT
ATOM      1  C   UNL     1      -0.333  -2.121  -0.920  1.00  0.00     0.124 C 
ENDROOT
BRANCH   1   2
ATOM      2  C   UNL     1      -0.598  -2.683   0.464  1.00  0.00     0.189 C 
ATOM      3  N   UNL     1      -1.719  -2.909   1.066  1.00  0.00    -0.214 NA
BRANCH   3   4
ATOM      4  C   UNL     1      -2.931  -2.606   0.423  1.00  0.00     0.113 A 
ATOM      5  C   UNL     1      -3.077   1.056   0.601  1.00  0.00     0.218 C 
ATOM      6  O   UNL     1      -2.607  -0.286   0.769  1.00  0.00    -0.459 OA
ATOM      7  C   UNL     1      -2.461   1.657  -0.663  1.00  0.00     0.155 C 
ATOM      8  O   UNL     1      -4.507   1.176   0.566  1.00  0.00    -0.331 OA
ATOM      9  C   UNL     1      -3.400  -1.287   0.282  1.00  0.00     0.155 A 
ATOM     10  C   UNL     1      -3.161   1.133  -1.891  1.00  0.00     0.145 C 
ATOM     11  C   UNL     1      -5.061   0.409  -0.504  1.00  0.00     0.167 C 
ATOM     12  C   UNL     1      -4.626  -1.019  -0.334  1.00  0.00     0.030 A 
ATOM     13  O   UNL     1      -2.530   0.885  -2.919  1.00  0.00    -0.299 OA
ATOM     14  C   UNL     1      -4.673   1.069  -1.830  1.00  0.00     0.087 C 
ATOM     15  C   UNL     1      -5.411  -2.088  -0.789  1.00  0.00     0.056 A 
ATOM     16  C   UNL     1      -3.728  -3.657  -0.033  1.00  0.00     0.078 A 
ATOM     17  C   UNL     1      -4.954  -3.394  -0.634  1.00  0.00     0.118 A 
ATOM     18  C   UNL     1      -5.275   0.397  -3.059  1.00  0.00     0.019 C 
BRANCH   5  19
ATOM     19  C   UNL     1      -2.641   1.840   1.870  1.00  0.00     0.081 C 
BRANCH  19  20
ATOM     20  C   UNL     1      -1.179   1.668   2.316  1.00  0.00     0.014 C 
BRANCH  20  21
ATOM     21  C   UNL     1      -0.176   2.620   1.629  1.00  0.00     0.011 CG0
ATOM     22  G   UNL     1       1.132   1.880   1.458  1.00  0.00     0.000 G0
BRANCH  21  23
ATOM     23  C   UNL     1      -0.001   3.919   2.440  1.00  0.00     0.004 C 
ATOM     24  C   UNL     1       0.874   4.949   1.736  1.00  0.00     0.004 C 
ENDBRANCH  21  23
ENDBRANCH  20  21
ENDBRANCH  19  20
ENDBRANCH   5  19
BRANCH  17  25
ATOM     25  O   UNL     1      -5.691  -4.458  -1.064  1.00  0.00    -0.508 OA
ATOM     26  H   UNL     1      -6.531  -4.139  -1.431  1.00  0.00     0.293 HD
ENDBRANCH  17  25
ENDBRANCH   3   4
BRANCH   2  27
ATOM     27  O   UNL     1       0.507  -2.972   1.169  1.00  0.00    -0.496 OA
ATOM     28  H   UNL     1       0.216  -3.254   2.051  1.00  0.00     0.294 HD
ENDBRANCH   2  27
ENDBRANCH   1   2
BRANCH   1  29
ATOM     29  C   UNL     1       0.757  -2.885  -1.627  1.00  0.00    -0.007 C 
ATOM     30  C   UNL     1       2.001  -2.489  -1.970  1.00  0.00     0.031 C 
ATOM     31  C   UNL     1       2.922  -3.397  -2.738  1.00  0.00     0.052 C 
BRANCH  30  32
ATOM     32  C   UNL     1       2.609  -1.160  -1.673  1.00  0.00     0.334 C 
ATOM     33  O   UNL     1       3.416  -0.623  -2.418  1.00  0.00    -0.247 OA
BRANCH  32  34
ATOM     34  O   UNL     1       2.215  -0.701  -0.468  1.00  0.00    -0.452 OA
BRANCH  34  35
ATOM     35  C   UNL     1       2.770   0.559  -0.026  1.00  0.00     0.232 C 
BRANCH  35  36
ATOM     36  C   UNL     1       1.565   1.427   0.270  1.00  0.00     0.016 C 
ATOM     37  C   UNL     1       1.132   1.880   1.458  1.00  0.00    -0.024 CG0
ATOM     38  G   UNL     1      -0.176   2.620   1.629  1.00  0.00     0.000 G0
ENDBRANCH  35  36
BRANCH  35  39
ATOM     39  C   UNL     1       3.785   0.324   1.136  1.00  0.00     0.182 C 
BRANCH  39  40
ATOM     40  O   UNL     1       3.213  -0.441   2.203  1.00  0.00    -0.385 OA
ATOM     41  H   UNL     1       3.944  -0.703   2.786  1.00  0.00     0.211 HD
ENDBRANCH  39  40
BRANCH  39  42
ATOM     42  C   UNL     1       5.013  -0.427   0.683  1.00  0.00     0.007 C 
ATOM     43  C   UNL     1       6.287   0.007   0.607  1.00  0.00    -0.078 C 
ATOM     44  C   UNL     1       6.760   1.392   0.952  1.00  0.00     0.039 C 
ATOM     45  C   UNL     1       7.379  -0.915   0.128  1.00  0.00     0.039 C 
ENDBRANCH  39  42
ENDBRANCH  35  39
ENDBRANCH  34  35
ENDBRANCH  32  34
ENDBRANCH  30  32
ENDBRANCH   1  29
TORSDOF 6
