REMARK SMILES O=c1c(O[C@@H]2O[C@H]([C@@H](O)CO)[C@H](O)[C@H]2O)c(-c2ccc(O)c(O)c2)oc2cc(O[C@@H]3O[C@H](CO)[C@@H](O)[C@H](O)[C@H]3O)cc(O)c12
REMARK SMILES IDX 1 1 2 2 3 3 16 4 25 5 26 6 27 7 28 8 41 9 42 10 44 11 4 12
REMARK SMILES IDX 5 13 6 14 14 15 7 16 12 17 15 18 8 20 9 21 10 23 11 24 13 26
REMARK SMILES IDX 17 28 18 29 24 30 19 31 22 32 20 33 23 34 21 36 43 38 29 40
REMARK SMILES IDX 30 41 31 42 39 43 32 44 37 45 35 46 40 47 33 49 34 50 38 52
REMARK SMILES IDX 36 54
REMARK H PARENT 15 19 9 22 11 25 13 27 23 35 21 37 43 39 40 48 34 51 38 53
REMARK H PARENT 36 55
ROOT
ATOM      1  O   UNL     1      -0.876  -2.269   0.684  1.00  0.00    -0.285 OA
ATOM      2  C   UNL     1      -0.704  -1.076   0.439  1.00  0.00     0.239 C 
ATOM      3  C   UNL     1      -1.818  -0.095   0.502  1.00  0.00     0.214 C 
ATOM      4  C   UNL     1      -1.540   1.200   0.260  1.00  0.00     0.180 C 
ATOM      5  O   UNL     1      -0.296   1.679  -0.117  1.00  0.00    -0.452 OA
ATOM      6  C   UNL     1       0.751   0.796  -0.196  1.00  0.00     0.146 A 
ATOM      7  C   UNL     1       1.993   1.320  -0.559  1.00  0.00     0.094 A 
ATOM      8  C   UNL     1       3.113   0.489  -0.662  1.00  0.00     0.130 A 
ATOM      9  C   UNL     1       2.979  -0.874  -0.394  1.00  0.00     0.093 A 
ATOM     10  C   UNL     1       1.735  -1.396  -0.035  1.00  0.00     0.134 A 
ATOM     11  C   UNL     1       0.619  -0.562   0.065  1.00  0.00     0.111 A 
ENDROOT
BRANCH   3  12
ATOM     12  O   UNL     1      -3.070  -0.534   0.881  1.00  0.00    -0.454 OA
BRANCH  12  13
ATOM     13  C   UNL     1      -3.660  -1.432  -0.064  1.00  0.00     0.339 C 
ATOM     14  O   UNL     1      -4.799  -0.805  -0.670  1.00  0.00    -0.332 OA
ATOM     15  C   UNL     1      -4.161  -2.655   0.699  1.00  0.00     0.214 C 
ATOM     16  C   UNL     1      -5.930  -1.705  -0.599  1.00  0.00     0.185 C 
ATOM     17  C   UNL     1      -5.391  -3.046  -0.092  1.00  0.00     0.181 C 
BRANCH  15  18
ATOM     18  O   UNL     1      -3.228  -3.736   0.743  1.00  0.00    -0.384 OA
ATOM     19  H   UNL     1      -2.350  -3.352   0.962  1.00  0.00     0.211 HD
ENDBRANCH  15  18
BRANCH  16  20
ATOM     20  C   UNL     1      -7.081  -1.020   0.155  1.00  0.00     0.171 C 
BRANCH  20  21
ATOM     21  O   UNL     1      -8.314  -1.722  -0.046  1.00  0.00    -0.388 OA
ATOM     22  H   UNL     1      -8.922  -1.351   0.624  1.00  0.00     0.211 HD
ENDBRANCH  20  21
BRANCH  20  23
ATOM     23  C   UNL     1      -6.849  -0.822   1.656  1.00  0.00     0.190 C 
BRANCH  23  24
ATOM     24  O   UNL     1      -7.986  -0.137   2.197  1.00  0.00    -0.394 OA
ATOM     25  H   UNL     1      -7.766   0.074   3.122  1.00  0.00     0.210 HD
ENDBRANCH  23  24
ENDBRANCH  20  23
ENDBRANCH  16  20
BRANCH  17  26
ATOM     26  O   UNL     1      -6.277  -3.823   0.696  1.00  0.00    -0.387 OA
ATOM     27  H   UNL     1      -5.778  -4.617   0.966  1.00  0.00     0.211 HD
ENDBRANCH  17  26
ENDBRANCH  12  13
ENDBRANCH   3  12
BRANCH   4  28
ATOM     28  C   UNL     1      -2.573   2.252   0.336  1.00  0.00     0.025 A 
ATOM     29  C   UNL     1      -2.786   3.105  -0.762  1.00  0.00     0.016 A 
ATOM     30  C   UNL     1      -3.346   2.427   1.493  1.00  0.00     0.062 A 
ATOM     31  C   UNL     1      -3.767   4.103  -0.717  1.00  0.00     0.051 A 
ATOM     32  C   UNL     1      -4.319   3.416   1.528  1.00  0.00     0.158 A 
ATOM     33  C   UNL     1      -4.532   4.248   0.433  1.00  0.00     0.157 A 
BRANCH  32  34
ATOM     34  O   UNL     1      -5.076   3.566   2.655  1.00  0.00    -0.504 OA
ATOM     35  H   UNL     1      -5.686   4.301   2.444  1.00  0.00     0.293 HD
ENDBRANCH  32  34
BRANCH  33  36
ATOM     36  O   UNL     1      -5.509   5.198   0.538  1.00  0.00    -0.504 OA
ATOM     37  H   UNL     1      -5.566   5.671  -0.311  1.00  0.00     0.293 HD
ENDBRANCH  33  36
ENDBRANCH   4  28
BRANCH  10  38
ATOM     38  O   UNL     1       1.685  -2.743   0.205  1.00  0.00    -0.507 OA
ATOM     39  H   UNL     1       0.771  -2.984   0.471  1.00  0.00     0.293 HD
ENDBRANCH  10  38
BRANCH   8  40
ATOM     40  O   UNL     1       4.264   1.131  -1.026  1.00  0.00    -0.462 OA
BRANCH  40  41
ATOM     41  C   UNL     1       5.453   0.344  -1.202  1.00  0.00     0.339 C 
ATOM     42  O   UNL     1       5.947  -0.135   0.052  1.00  0.00    -0.332 OA
ATOM     43  C   UNL     1       6.491   1.280  -1.855  1.00  0.00     0.214 C 
ATOM     44  C   UNL     1       7.143  -0.911  -0.094  1.00  0.00     0.179 C 
ATOM     45  C   UNL     1       7.824   0.551  -2.006  1.00  0.00     0.180 C 
ATOM     46  C   UNL     1       8.271  -0.038  -0.667  1.00  0.00     0.177 C 
BRANCH  43  47
ATOM     47  O   UNL     1       6.069   1.726  -3.155  1.00  0.00    -0.384 OA
ATOM     48  H   UNL     1       5.187   2.128  -3.030  1.00  0.00     0.211 HD
ENDBRANCH  43  47
BRANCH  44  49
ATOM     49  C   UNL     1       7.535  -1.493   1.272  1.00  0.00     0.191 C 
BRANCH  49  50
ATOM     50  O   UNL     1       8.597  -2.435   1.164  1.00  0.00    -0.394 OA
ATOM     51  H   UNL     1       9.264  -2.048   0.556  1.00  0.00     0.210 HD
ENDBRANCH  49  50
ENDBRANCH  44  49
BRANCH  45  52
ATOM     52  O   UNL     1       8.837   1.450  -2.481  1.00  0.00    -0.387 OA
ATOM     53  H   UNL     1       8.435   1.910  -3.246  1.00  0.00     0.211 HD
ENDBRANCH  45  52
BRANCH  46  54
ATOM     54  O   UNL     1       9.473  -0.794  -0.853  1.00  0.00    -0.387 OA
ATOM     55  H   UNL     1      10.052  -0.218  -1.396  1.00  0.00     0.211 HD
ENDBRANCH  46  54
ENDBRANCH  40  41
ENDBRANCH   8  40
TORSDOF 19
