REMARK SMILES CC(O)Cc1oc2cc(O)c3c(=O)cc(-c4ccc(O)c(O)c4)oc3c2c(=O)c1O
REMARK SMILES IDX 5 1 29 2 27 3 28 4 26 5 25 6 24 7 15 8 14 9 12 10 13 11
REMARK SMILES IDX 11 12 9 13 8 14 7 15 6 16 4 17 2 18 1 19 3 20 30 22 10 24
REMARK SMILES IDX 16 26 17 27 23 28 18 29 21 30 19 31 22 32 20 34
REMARK H PARENT 3 21 30 23 10 25 22 33 20 35
ROOT
ATOM      1  C   UNL     1      -3.434   0.281  -0.095  1.00  0.00     0.152 C 
ATOM      2  C   UNL     1      -2.456   1.181   0.078  1.00  0.00     0.203 C 
ATOM      3  C   UNL     1      -1.040   0.748   0.027  1.00  0.00     0.238 C 
ATOM      4  O   UNL     1      -0.167   1.594   0.178  1.00  0.00    -0.285 OA
ATOM      5  C   UNL     1      -0.792  -0.687  -0.207  1.00  0.00     0.112 A 
ATOM      6  C   UNL     1       0.502  -1.228  -0.269  1.00  0.00     0.157 A 
ATOM      7  O   UNL     1       1.580  -0.397  -0.097  1.00  0.00    -0.455 OA
ATOM      8  C   UNL     1       2.862  -0.917  -0.164  1.00  0.00     0.138 C 
ATOM      9  C   UNL     1       3.136  -2.208  -0.398  1.00  0.00     0.100 C 
ATOM     10  C   UNL     1       2.021  -3.145  -0.575  1.00  0.00     0.197 C 
ATOM     11  O   UNL     1       2.213  -4.339  -0.774  1.00  0.00    -0.289 OA
ATOM     12  C   UNL     1       0.660  -2.596  -0.503  1.00  0.00     0.107 A 
ATOM     13  C   UNL     1      -0.458  -3.420  -0.668  1.00  0.00     0.134 A 
ATOM     14  C   UNL     1      -1.739  -2.883  -0.602  1.00  0.00     0.095 A 
ATOM     15  C   UNL     1      -1.904  -1.517  -0.372  1.00  0.00     0.145 A 
ATOM     16  O   UNL     1      -3.201  -1.067  -0.323  1.00  0.00    -0.457 OA
ENDROOT
BRANCH   1  17
ATOM     17  C   UNL     1      -4.903   0.643  -0.087  1.00  0.00     0.111 C 
BRANCH  17  18
ATOM     18  C   UNL     1      -5.447   0.874   1.333  1.00  0.00     0.119 C 
ATOM     19  C   UNL     1      -6.962   0.718   1.371  1.00  0.00     0.039 C 
BRANCH  18  20
ATOM     20  O   UNL     1      -5.157   2.198   1.784  1.00  0.00    -0.393 OA
ATOM     21  H   UNL     1      -4.275   2.449   1.445  1.00  0.00     0.210 HD
ENDBRANCH  18  20
ENDBRANCH  17  18
ENDBRANCH   1  17
BRANCH   2  22
ATOM     22  O   UNL     1      -2.707   2.518   0.329  1.00  0.00    -0.502 OA
ATOM     23  H   UNL     1      -1.815   2.932   0.374  1.00  0.00     0.293 HD
ENDBRANCH   2  22
BRANCH  13  24
ATOM     24  O   UNL     1      -0.370  -4.765  -0.899  1.00  0.00    -0.507 OA
ATOM     25  H   UNL     1       0.582  -5.018  -0.926  1.00  0.00     0.293 HD
ENDBRANCH  13  24
BRANCH   8  26
ATOM     26  C   UNL     1       3.931   0.088   0.017  1.00  0.00     0.021 A 
ATOM     27  C   UNL     1       5.100  -0.201   0.749  1.00  0.00     0.016 A 
ATOM     28  C   UNL     1       3.780   1.373  -0.525  1.00  0.00     0.062 A 
ATOM     29  C   UNL     1       6.104   0.760   0.920  1.00  0.00     0.051 A 
ATOM     30  C   UNL     1       4.783   2.320  -0.356  1.00  0.00     0.158 A 
ATOM     31  C   UNL     1       5.938   2.019   0.360  1.00  0.00     0.157 A 
BRANCH  30  32
ATOM     32  O   UNL     1       4.627   3.562  -0.902  1.00  0.00    -0.504 OA
ATOM     33  H   UNL     1       5.435   4.048  -0.646  1.00  0.00     0.293 HD
ENDBRANCH  30  32
BRANCH  31  34
ATOM     34  O   UNL     1       6.881   2.999   0.488  1.00  0.00    -0.504 OA
ATOM     35  H   UNL     1       7.616   2.647   1.019  1.00  0.00     0.293 HD
ENDBRANCH  31  34
ENDBRANCH   8  26
TORSDOF 8
