REMARK SMILES O=c1c(O[C@@H]2O[C@H]([C@H](O)CO)[C@H](O)[C@H]2O)c(-c2ccc(O)c(O)c2)oc2cc(O)cc(O)c12
REMARK SMILES IDX 5 1 6 2 7 3 12 4 14 5 4 6 3 7 1 8 2 9 33 10 16 11 31 12
REMARK SMILES IDX 26 13 25 14 30 15 27 16 28 17 17 18 18 19 24 20 19 21 22 22
REMARK SMILES IDX 20 23 23 24 21 26 32 28 29 30 15 32 8 34 9 35 10 37 11 38
REMARK SMILES IDX 13 40
REMARK H PARENT 23 25 21 27 32 29 29 31 15 33 9 36 11 39 13 41
ROOT
ATOM      1  C   UNL     1       1.330  -1.112   0.225  1.00  0.00     0.339 C 
ATOM      2  O   UNL     1       1.945  -0.059   0.988  1.00  0.00    -0.332 OA
ATOM      3  C   UNL     1       3.260   0.205   0.436  1.00  0.00     0.185 C 
ATOM      4  C   UNL     1       3.300  -0.504  -0.926  1.00  0.00     0.181 C 
ATOM      5  C   UNL     1       2.429  -1.726  -0.657  1.00  0.00     0.214 C 
ENDROOT
BRANCH   1   6
ATOM      6  O   UNL     1       0.351  -0.505  -0.627  1.00  0.00    -0.454 OA
BRANCH   6   7
ATOM      7  C   UNL     1      -0.940  -0.857  -0.292  1.00  0.00     0.214 C 
ATOM      8  O   UNL     1      -0.586  -3.070  -1.080  1.00  0.00    -0.285 OA
ATOM      9  C   UNL     1      -1.373  -2.238  -0.635  1.00  0.00     0.239 C 
ATOM     10  C   UNL     1      -2.778  -2.581  -0.405  1.00  0.00     0.111 A 
ATOM     11  C   UNL     1      -1.837  -0.013   0.263  1.00  0.00     0.180 C 
ATOM     12  C   UNL     1      -3.295  -3.837  -0.736  1.00  0.00     0.134 A 
ATOM     13  C   UNL     1      -3.603  -1.618   0.165  1.00  0.00     0.146 A 
ATOM     14  O   UNL     1      -3.157  -0.373   0.523  1.00  0.00    -0.452 OA
ATOM     15  C   UNL     1      -4.636  -4.124  -0.499  1.00  0.00     0.093 A 
ATOM     16  C   UNL     1      -4.949  -1.899   0.407  1.00  0.00     0.094 A 
ATOM     17  C   UNL     1      -5.454  -3.152   0.071  1.00  0.00     0.123 A 
BRANCH  11  18
ATOM     18  C   UNL     1      -1.524   1.371   0.728  1.00  0.00     0.025 A 
ATOM     19  C   UNL     1      -2.263   1.924   1.798  1.00  0.00     0.016 A 
ATOM     20  C   UNL     1      -0.515   2.165   0.158  1.00  0.00     0.062 A 
ATOM     21  C   UNL     1      -1.998   3.208   2.288  1.00  0.00     0.051 A 
ATOM     22  C   UNL     1      -0.224   3.423   0.680  1.00  0.00     0.158 A 
ATOM     23  C   UNL     1      -0.973   3.946   1.725  1.00  0.00     0.157 A 
BRANCH  22  24
ATOM     24  O   UNL     1       0.817   4.170   0.200  1.00  0.00    -0.504 OA
ATOM     25  H   UNL     1       1.482   3.545  -0.173  1.00  0.00     0.293 HD
ENDBRANCH  22  24
BRANCH  23  26
ATOM     26  O   UNL     1      -0.690   5.188   2.213  1.00  0.00    -0.504 OA
ATOM     27  H   UNL     1       0.051   5.502   1.656  1.00  0.00     0.293 HD
ENDBRANCH  23  26
ENDBRANCH  11  18
BRANCH  12  28
ATOM     28  O   UNL     1      -2.540  -4.832  -1.297  1.00  0.00    -0.507 OA
ATOM     29  H   UNL     1      -1.622  -4.502  -1.408  1.00  0.00     0.293 HD
ENDBRANCH  12  28
BRANCH  17  30
ATOM     30  O   UNL     1      -6.761  -3.471   0.287  1.00  0.00    -0.508 OA
ATOM     31  H   UNL     1      -7.221  -2.708   0.675  1.00  0.00     0.293 HD
ENDBRANCH  17  30
ENDBRANCH   6   7
ENDBRANCH   1   6
BRANCH   5  32
ATOM     32  O   UNL     1       3.183  -2.715   0.047  1.00  0.00    -0.384 OA
ATOM     33  H   UNL     1       2.630  -3.517   0.096  1.00  0.00     0.211 HD
ENDBRANCH   5  32
BRANCH   3  34
ATOM     34  C   UNL     1       3.521   1.728   0.457  1.00  0.00     0.171 C 
BRANCH  34  35
ATOM     35  O   UNL     1       2.747   2.434  -0.537  1.00  0.00    -0.388 OA
ATOM     36  H   UNL     1       2.848   1.903  -1.360  1.00  0.00     0.211 HD
ENDBRANCH  34  35
BRANCH  34  37
ATOM     37  C   UNL     1       5.002   2.073   0.261  1.00  0.00     0.190 C 
BRANCH  37  38
ATOM     38  O   UNL     1       5.486   1.615  -0.996  1.00  0.00    -0.394 OA
ATOM     39  H   UNL     1       5.049   2.150  -1.683  1.00  0.00     0.210 HD
ENDBRANCH  37  38
ENDBRANCH  34  37
ENDBRANCH   3  34
BRANCH   4  40
ATOM     40  O   UNL     1       2.743   0.310  -1.976  1.00  0.00    -0.387 OA
ATOM     41  H   UNL     1       1.775   0.160  -1.994  1.00  0.00     0.211 HD
ENDBRANCH   4  40
TORSDOF 13
