REMARK SMILES N[C@@H](Cc1cc(I)c(Oc2ccc(O)c(I)c2)c(I)c1)C(=O)O
REMARK SMILES IDX 4 1 5 2 6 3 8 4 18 5 20 6 7 7 19 8 3 9 2 10 21 11 22 12
REMARK SMILES IDX 23 13 1 15 9 18 10 19 17 20 11 21 15 22 12 23 13 24 16 25
REMARK SMILES IDX 14 26
REMARK H PARENT 23 14 1 16 1 17 14 27
ROOT
ATOM      1  C   UNL     1       6.754  20.830  27.533  1.00  0.00    -0.043 A 
ATOM      2  C   UNL     1       7.014  20.406  28.932  1.00  0.00     0.022 A 
ATOM      3  C   UNL     1       6.292  19.390  29.482  1.00  0.00     0.057 A 
ATOM      4  C   UNL     1       5.290  18.757  28.718  1.00  0.00     0.154 A 
ATOM      5  C   UNL     1       5.045  19.158  27.362  1.00  0.00     0.057 A 
ATOM      6  C   UNL     1       5.793  20.209  26.787  1.00  0.00     0.022 A 
ATOM      7  I   UNL     1       6.677  18.782  31.469  1.00  0.00    -0.040 I 
ATOM      8  I   UNL     1       3.568  18.157  26.235  1.00  0.00    -0.040 I 
ENDROOT
BRANCH   1   9
ATOM      9  C   UNL     1       7.575  21.956  26.916  1.00  0.00     0.066 C 
BRANCH   9  10
ATOM     10  C   UNL     1       8.251  21.650  25.579  1.00  0.00     0.166 C 
BRANCH  10  11
ATOM     11  C   UNL     1       9.290  22.691  25.204  1.00  0.00     0.320 C 
ATOM     12  O   UNL     1       9.092  24.014  25.611  1.00  0.00    -0.251 OA
BRANCH  11  13
ATOM     13  O   UNL     1      10.235  22.377  24.564  1.00  0.00    -0.480 OA
ATOM     14  H   UNL     1      10.914  23.054  24.318  1.00  0.00     0.296 HD
ENDBRANCH  11  13
ENDBRANCH  10  11
BRANCH  10  15
ATOM     15  N   UNL     1       8.746  20.294  25.459  1.00  0.00    -0.318 NA
ATOM     16  H   UNL     1       8.891  19.897  26.398  1.00  0.00     0.119 HD
ATOM     17  H   UNL     1       8.060  19.722  24.947  1.00  0.00     0.119 HD
ENDBRANCH  10  15
ENDBRANCH   9  10
ENDBRANCH   1   9
BRANCH   4  18
ATOM     18  O   UNL     1       4.566  17.689  29.245  1.00  0.00    -0.455 OA
BRANCH  18  19
ATOM     19  C   UNL     1       3.470  18.060  30.034  1.00  0.00     0.128 A 
ATOM     20  C   UNL     1       3.084  17.185  31.101  1.00  0.00     0.065 A 
ATOM     21  C   UNL     1       2.707  19.215  29.758  1.00  0.00     0.051 A 
ATOM     22  C   UNL     1       1.957  17.476  31.888  1.00  0.00     0.058 A 
ATOM     23  C   UNL     1       1.614  19.497  30.522  1.00  0.00     0.051 A 
ATOM     24  C   UNL     1       1.219  18.598  31.629  1.00  0.00     0.129 A 
ATOM     25  I   UNL     1       1.459  16.147  33.457  1.00  0.00    -0.040 I 
BRANCH  24  26
ATOM     26  O   UNL     1       0.079  18.897  32.388  1.00  0.00    -0.507 OA
ATOM     27  H   UNL     1      -0.447  19.712  32.191  1.00  0.00     0.293 HD
ENDBRANCH  24  26
ENDBRANCH  18  19
ENDBRANCH   4  18
TORSDOF 8
