REMARK SMILES c1c2c(cc3c1OCO3)-c1cc3ccc4c(c3c[n+]1CC2)OCO4
REMARK SMILES IDX 21 1 20 2 19 3 10 4 11 5 12 6 13 7 14 8 15 9 16 10 17 11
REMARK SMILES IDX 18 12 22 13 23 14 24 15 3 16 4 17 5 18 6 19 1 20 2 21 7 22
REMARK SMILES IDX 8 23 9 24
REMARK H PARENT
ROOT
ATOM      1  C   UNL     1       1.696   2.223  -0.832  1.00  0.00     0.109 C 
ATOM      2  C   UNL     1       0.452   2.398   0.021  1.00  0.00     0.362 C 
ATOM      3  N   UNL     1      -0.348   1.145   0.018  1.00  0.00    -0.197 N 
ATOM      4  C   UNL     1       0.257  -0.075   0.121  1.00  0.00     0.213 A 
ATOM      5  C   UNL     1      -0.541  -1.233   0.139  1.00  0.00     0.089 A 
ATOM      6  C   UNL     1      -1.935  -1.149   0.074  1.00  0.00    -0.002 A 
ATOM      7  C   UNL     1      -2.763  -2.297   0.092  1.00  0.00     0.013 A 
ATOM      8  C   UNL     1      -4.156  -2.184   0.028  1.00  0.00     0.051 A 
ATOM      9  C   UNL     1      -4.696  -0.921  -0.054  1.00  0.00     0.166 A 
ATOM     10  C   UNL     1      -3.906   0.203  -0.074  1.00  0.00     0.179 A 
ATOM     11  C   UNL     1      -2.519   0.126  -0.013  1.00  0.00     0.092 A 
ATOM     12  C   UNL     1      -1.697   1.252  -0.037  1.00  0.00     0.321 A 
ATOM     13  O   UNL     1      -4.642   1.347  -0.160  1.00  0.00    -0.453 OA
ATOM     14  C   UNL     1      -5.987   0.810  -0.189  1.00  0.00     0.468 C 
ATOM     15  O   UNL     1      -6.020  -0.628  -0.123  1.00  0.00    -0.454 OA
ATOM     16  C   UNL     1       1.734  -0.084   0.168  1.00  0.00     0.054 A 
ATOM     17  C   UNL     1       2.464  -1.180   0.670  1.00  0.00     0.066 A 
ATOM     18  C   UNL     1       3.844  -1.134   0.644  1.00  0.00     0.166 A 
ATOM     19  C   UNL     1       4.527  -0.055   0.148  1.00  0.00     0.166 A 
ATOM     20  C   UNL     1       3.870   1.048  -0.344  1.00  0.00     0.055 A 
ATOM     21  C   UNL     1       2.465   1.038  -0.317  1.00  0.00    -0.024 A 
ATOM     22  O   UNL     1       5.874  -0.216   0.212  1.00  0.00    -0.454 OA
ATOM     23  C   UNL     1       5.966  -1.530   0.806  1.00  0.00     0.468 C 
ATOM     24  O   UNL     1       4.674  -2.114   1.088  1.00  0.00    -0.454 OA
ENDROOT
TORSDOF 0
