REMARK SMILES c1cc2c(c3c1C[C@H]1c4cc5c(cc4CCN1C3)OCO5)OCO2
REMARK SMILES IDX 15 1 16 2 17 3 18 4 5 5 6 6 7 7 8 8 9 9 10 10 11 11 12 12
REMARK SMILES IDX 13 13 14 14 19 15 20 16 21 17 1 18 2 19 3 20 4 21 22 22
REMARK SMILES IDX 23 23 24 24
REMARK H PARENT
ROOT
ATOM      1  C   UNL     1      -1.880   1.839  -1.630  1.00  0.00     0.051 C 
ATOM      2  C   UNL     1      -0.528   2.185  -1.014  1.00  0.00     0.090 C 
ATOM      3  N   UNL     1       0.340   1.015  -0.870  1.00  0.00    -0.291 NA
ATOM      4  C   UNL     1       1.601   1.387  -0.215  1.00  0.00     0.125 C 
ATOM      5  C   UNL     1       2.519   0.216  -0.029  1.00  0.00     0.016 A 
ATOM      6  C   UNL     1       1.975  -0.985   0.454  1.00  0.00    -0.038 A 
ATOM      7  C   UNL     1       0.492  -0.999   0.721  1.00  0.00     0.060 C 
ATOM      8  C   UNL     1      -0.311  -0.231  -0.373  1.00  0.00     0.092 C 
ATOM      9  C   UNL     1      -1.813  -0.115  -0.054  1.00  0.00    -0.023 A 
ATOM     10  C   UNL     1      -2.474  -1.021   0.797  1.00  0.00     0.056 A 
ATOM     11  C   UNL     1      -3.840  -0.901   0.962  1.00  0.00     0.166 A 
ATOM     12  C   UNL     1      -4.572   0.059   0.311  1.00  0.00     0.166 A 
ATOM     13  C   UNL     1      -3.978   0.960  -0.541  1.00  0.00     0.054 A 
ATOM     14  C   UNL     1      -2.588   0.876  -0.718  1.00  0.00    -0.038 A 
ATOM     15  O   UNL     1      -5.897  -0.005   0.606  1.00  0.00    -0.454 OA
ATOM     16  C   UNL     1      -5.916  -1.121   1.519  1.00  0.00     0.468 C 
ATOM     17  O   UNL     1      -4.613  -1.698   1.749  1.00  0.00    -0.454 OA
ATOM     18  C   UNL     1       2.801  -2.095   0.716  1.00  0.00     0.008 A 
ATOM     19  C   UNL     1       4.176  -2.019   0.484  1.00  0.00     0.051 A 
ATOM     20  C   UNL     1       4.686  -0.827   0.012  1.00  0.00     0.166 A 
ATOM     21  C   UNL     1       3.884   0.265  -0.232  1.00  0.00     0.170 A 
ATOM     22  O   UNL     1       4.599   1.339  -0.665  1.00  0.00    -0.453 OA
ATOM     23  C   UNL     1       5.931   0.789  -0.695  1.00  0.00     0.468 C 
ATOM     24  O   UNL     1       5.998  -0.580  -0.249  1.00  0.00    -0.454 OA
ENDROOT
TORSDOF 0
