REMARK SMILES COc1ccc2cc3[n+](cc2c1O)CCc1cc2c(cc1-3)OCO2
REMARK SMILES IDX 3 1 12 2 11 3 10 4 9 5 8 6 7 7 6 8 5 9 4 10 21 11 20 12
REMARK SMILES IDX 19 13 18 14 17 15 16 16 15 17 14 18 24 19 23 20 22 21 2 22
REMARK SMILES IDX 1 23 13 24
REMARK H PARENT 13 25
ROOT
ATOM      1  C   UNL     1      -4.365  -0.759   0.214  1.00  0.00     0.161 A 
ATOM      2  C   UNL     1      -3.386  -0.949  -0.768  1.00  0.00     0.171 A 
ATOM      3  C   UNL     1      -2.035  -0.645  -0.540  1.00  0.00     0.091 A 
ATOM      4  C   UNL     1      -1.053  -0.828  -1.515  1.00  0.00     0.321 A 
ATOM      5  N   UNL     1       0.247  -0.526  -1.285  1.00  0.00    -0.197 N 
ATOM      6  C   UNL     1       0.653  -0.047  -0.074  1.00  0.00     0.213 A 
ATOM      7  C   UNL     1      -0.307   0.159   0.931  1.00  0.00     0.089 A 
ATOM      8  C   UNL     1      -1.655  -0.139   0.709  1.00  0.00    -0.002 A 
ATOM      9  C   UNL     1      -2.637   0.056   1.698  1.00  0.00     0.013 A 
ATOM     10  C   UNL     1      -3.982  -0.252   1.452  1.00  0.00     0.051 A 
ATOM     11  C   UNL     1       2.091   0.258   0.074  1.00  0.00     0.054 A 
ATOM     12  C   UNL     1       2.712   0.363   1.335  1.00  0.00     0.066 A 
ATOM     13  C   UNL     1       4.052   0.691   1.396  1.00  0.00     0.166 A 
ATOM     14  C   UNL     1       4.798   0.918   0.269  1.00  0.00     0.166 A 
ATOM     15  C   UNL     1       4.250   0.819  -0.988  1.00  0.00     0.055 A 
ATOM     16  C   UNL     1       2.892   0.470  -1.084  1.00  0.00    -0.024 A 
ATOM     17  C   UNL     1       2.245   0.338  -2.434  1.00  0.00     0.109 C 
ATOM     18  C   UNL     1       1.225  -0.785  -2.374  1.00  0.00     0.362 C 
ATOM     19  O   UNL     1       6.088   1.230   0.553  1.00  0.00    -0.454 OA
ATOM     20  C   UNL     1       6.074   1.179   1.997  1.00  0.00     0.468 C 
ATOM     21  O   UNL     1       4.779   0.831   2.536  1.00  0.00    -0.454 OA
ENDROOT
BRANCH   1  22
ATOM     22  O   UNL     1      -5.634  -1.103  -0.166  1.00  0.00    -0.493 OA
ATOM     23  C   UNL     1      -6.665  -0.927   0.803  1.00  0.00     0.278 C 
ENDBRANCH   1  22
BRANCH   2  24
ATOM     24  O   UNL     1      -3.756  -1.447  -1.994  1.00  0.00    -0.504 OA
ATOM     25  H   UNL     1      -4.727  -1.585  -1.933  1.00  0.00     0.293 HD
ENDBRANCH   2  24
TORSDOF 2
