REMARK SMILES C[C@@]12CCC[C@]3(C)c4cc5c(O)ccc(O)c5cc4C(=O)[C@](O)(OC1)[C@H]23
REMARK SMILES IDX 1 1 2 2 3 3 4 4 5 5 6 6 7 7 8 8 9 9 10 10 11 11 13 12 14 13
REMARK SMILES IDX 15 14 17 15 18 16 19 17 20 18 21 19 22 20 24 21 25 22 26 23
REMARK SMILES IDX 23 24 12 26 16 28
REMARK H PARENT 23 25 12 27 16 29
ROOT
ATOM      1  C   UNL     1      -1.605   1.783   0.393  1.00  0.00     0.014 C 
ATOM      2  C   UNL     1      -2.522   0.543   0.530  1.00  0.00     0.000 C 
ATOM      3  C   UNL     1      -2.751   0.262   2.015  1.00  0.00     0.010 C 
ATOM      4  C   UNL     1      -1.463  -0.297   2.645  1.00  0.00     0.002 C 
ATOM      5  C   UNL     1      -0.912  -1.526   1.901  1.00  0.00     0.012 C 
ATOM      6  C   UNL     1      -0.780  -1.392   0.345  1.00  0.00     0.002 C 
ATOM      7  C   UNL     1      -0.611  -2.829  -0.214  1.00  0.00     0.017 C 
ATOM      8  C   UNL     1       0.396  -0.591  -0.205  1.00  0.00    -0.030 A 
ATOM      9  C   UNL     1       1.613  -0.484   0.494  1.00  0.00     0.017 A 
ATOM     10  C   UNL     1       2.733   0.216  -0.023  1.00  0.00     0.028 A 
ATOM     11  C   UNL     1       3.966   0.337   0.662  1.00  0.00     0.123 A 
ATOM     12  C   UNL     1       5.026   1.084   0.150  1.00  0.00     0.050 A 
ATOM     13  C   UNL     1       4.899   1.707  -1.085  1.00  0.00     0.050 A 
ATOM     14  C   UNL     1       3.707   1.577  -1.794  1.00  0.00     0.123 A 
ATOM     15  C   UNL     1       2.614   0.841  -1.285  1.00  0.00     0.028 A 
ATOM     16  C   UNL     1       1.406   0.716  -1.997  1.00  0.00     0.025 A 
ATOM     17  C   UNL     1       0.313   0.013  -1.474  1.00  0.00     0.028 A 
ATOM     18  C   UNL     1      -0.935  -0.042  -2.296  1.00  0.00     0.222 C 
ATOM     19  O   UNL     1      -0.892   0.225  -3.498  1.00  0.00    -0.288 OA
ATOM     20  C   UNL     1      -2.250  -0.476  -1.615  1.00  0.00     0.235 C 
ATOM     21  O   UNL     1      -3.295   0.511  -1.682  1.00  0.00    -0.343 OA
ATOM     22  C   UNL     1      -3.747   0.806  -0.338  1.00  0.00     0.171 C 
ATOM     23  C   UNL     1      -2.094  -0.773  -0.140  1.00  0.00     0.076 C 
ENDROOT
BRANCH  20  24
ATOM     24  O   UNL     1      -2.725  -1.635  -2.286  1.00  0.00    -0.359 OA
ATOM     25  H   UNL     1      -2.739  -1.365  -3.224  1.00  0.00     0.214 HD
ENDBRANCH  20  24
BRANCH  11  26
ATOM     26  O   UNL     1       4.210  -0.273   1.864  1.00  0.00    -0.507 OA
ATOM     27  H   UNL     1       3.709  -1.103   1.889  1.00  0.00     0.293 HD
ENDBRANCH  11  26
BRANCH  14  28
ATOM     28  O   UNL     1       3.587   2.187  -3.017  1.00  0.00    -0.507 OA
ATOM     29  H   UNL     1       4.416   2.645  -3.228  1.00  0.00     0.293 HD
ENDBRANCH  14  28
TORSDOF 3
