REMARK SMILES CC(=O)OC[C@H](Cc1ccccc1)NC(=O)C(Cc1ccccc1)NC(=O)c1ccccc1
REMARK SMILES IDX 6 1 5 2 4 3 2 4 3 5 1 6 7 7 8 8 9 9 13 10 10 11 12 12 11 13
REMARK SMILES IDX 14 14 15 15 16 16 17 18 18 19 19 20 20 21 24 22 21 23 23 24
REMARK SMILES IDX 22 25 25 26 26 27 27 28 28 30 29 31 33 32 30 33 32 34 31 35
REMARK H PARENT 14 17 25 29
ROOT
ATOM      1  C   UNL     1       2.564  -0.523  -0.183  1.00  0.00     0.124 C 
ENDROOT
BRANCH   1   2
ATOM      2  C   UNL     1       2.639  -0.479   1.358  1.00  0.00     0.258 C 
BRANCH   2   3
ATOM      3  O   UNL     1       2.214   0.807   1.853  1.00  0.00    -0.464 OA
BRANCH   3   4
ATOM      4  C   UNL     1       0.982   0.870   2.422  1.00  0.00     0.302 C 
ATOM      5  O   UNL     1       0.208  -0.064   2.581  1.00  0.00    -0.253 OA
ATOM      6  C   UNL     1       0.686   2.283   2.824  1.00  0.00     0.139 C 
ENDBRANCH   3   4
ENDBRANCH   2   3
ENDBRANCH   1   2
BRANCH   1   7
ATOM      7  C   UNL     1       3.312   0.641  -0.861  1.00  0.00     0.064 C 
BRANCH   7   8
ATOM      8  C   UNL     1       4.802   0.632  -0.616  1.00  0.00    -0.046 A 
ATOM      9  C   UNL     1       5.623  -0.300  -1.264  1.00  0.00     0.004 A 
ATOM     10  C   UNL     1       5.382   1.547   0.274  1.00  0.00     0.004 A 
ATOM     11  C   UNL     1       6.998  -0.318  -1.025  1.00  0.00     0.000 A 
ATOM     12  C   UNL     1       6.757   1.528   0.511  1.00  0.00     0.000 A 
ATOM     13  C   UNL     1       7.565   0.596  -0.138  1.00  0.00     0.000 A 
ENDBRANCH   7   8
ENDBRANCH   1   7
BRANCH   1  14
ATOM     14  N   UNL     1       1.172  -0.532  -0.629  1.00  0.00    -0.348 N 
ATOM     15  C   UNL     1       0.407  -1.679  -0.665  1.00  0.00     0.243 C 
ATOM     16  O   UNL     1       0.873  -2.790  -0.424  1.00  0.00    -0.273 OA
ATOM     17  H   UNL     1       0.693   0.355  -0.795  1.00  0.00     0.163 HD
BRANCH  15  18
ATOM     18  C   UNL     1      -1.056  -1.447  -1.114  1.00  0.00     0.176 C 
BRANCH  18  19
ATOM     19  C   UNL     1      -1.773  -2.799  -1.279  1.00  0.00     0.070 C 
BRANCH  19  20
ATOM     20  C   UNL     1      -3.197  -2.673  -1.773  1.00  0.00    -0.045 A 
ATOM     21  C   UNL     1      -4.270  -3.030  -0.944  1.00  0.00     0.004 A 
ATOM     22  C   UNL     1      -3.467  -2.199  -3.065  1.00  0.00     0.004 A 
ATOM     23  C   UNL     1      -5.585  -2.904  -1.394  1.00  0.00     0.000 A 
ATOM     24  C   UNL     1      -4.783  -2.074  -3.512  1.00  0.00     0.000 A 
ATOM     25  C   UNL     1      -5.841  -2.424  -2.677  1.00  0.00     0.000 A 
ENDBRANCH  19  20
ENDBRANCH  18  19
BRANCH  18  26
ATOM     26  N   UNL     1      -1.754  -0.578  -0.158  1.00  0.00    -0.340 N 
ATOM     27  C   UNL     1      -1.626   0.790  -0.164  1.00  0.00     0.251 C 
ATOM     28  O   UNL     1      -0.844   1.379  -0.906  1.00  0.00    -0.269 OA
ATOM     29  H   UNL     1      -2.406  -1.019   0.475  1.00  0.00     0.164 HD
BRANCH  27  30
ATOM     30  C   UNL     1      -2.479   1.553   0.786  1.00  0.00     0.039 A 
ATOM     31  C   UNL     1      -2.844   2.861   0.441  1.00  0.00     0.014 A 
ATOM     32  C   UNL     1      -2.894   1.021   2.013  1.00  0.00     0.014 A 
ATOM     33  C   UNL     1      -3.636   3.621   1.303  1.00  0.00     0.001 A 
ATOM     34  C   UNL     1      -3.685   1.786   2.874  1.00  0.00     0.001 A 
ATOM     35  C   UNL     1      -4.058   3.081   2.517  1.00  0.00     0.000 A 
ENDBRANCH  27  30
ENDBRANCH  18  26
ENDBRANCH  15  18
ENDBRANCH   1  14
TORSDOF 11
