REMARK SMILES COc1cc2c3c(c1)c(=O)nc([C@@H]1CCCN1)n3-c1ccccc1C(=O)O2
REMARK SMILES IDX 3 1 4 2 5 3 6 4 7 5 8 6 9 7 10 8 11 9 12 10 18 11 19 12
REMARK SMILES IDX 20 13 21 14 22 15 23 16 24 17 25 18 26 19 27 20 2 21 1 22
REMARK SMILES IDX 13 23 14 24 17 25 15 26 16 27
REMARK H PARENT 17 28
ROOT
ATOM      1  C   UNL     1       4.110  -0.023   0.180  1.00  0.00     0.123 A 
ATOM      2  C   UNL     1       3.541  -1.277  -0.032  1.00  0.00     0.096 A 
ATOM      3  C   UNL     1       2.150  -1.430  -0.141  1.00  0.00     0.159 A 
ATOM      4  C   UNL     1       1.278  -0.338  -0.013  1.00  0.00     0.103 A 
ATOM      5  C   UNL     1       1.882   0.915   0.175  1.00  0.00     0.073 A 
ATOM      6  C   UNL     1       3.275   1.081   0.279  1.00  0.00     0.062 A 
ATOM      7  C   UNL     1       1.002   2.096   0.294  1.00  0.00     0.281 C 
ATOM      8  O   UNL     1       1.472   3.143   0.723  1.00  0.00    -0.267 OA
ATOM      9  N   UNL     1      -0.290   1.988  -0.134  1.00  0.00    -0.193 NA
ATOM     10  C   UNL     1      -0.821   0.806  -0.272  1.00  0.00     0.135 C 
ATOM     11  N   UNL     1      -0.150  -0.412  -0.023  1.00  0.00    -0.292 N 
ATOM     12  C   UNL     1      -0.871  -1.620   0.231  1.00  0.00     0.062 A 
ATOM     13  C   UNL     1      -1.960  -1.645   1.118  1.00  0.00     0.027 A 
ATOM     14  C   UNL     1      -2.707  -2.811   1.326  1.00  0.00     0.002 A 
ATOM     15  C   UNL     1      -2.372  -3.988   0.660  1.00  0.00     0.001 A 
ATOM     16  C   UNL     1      -1.273  -4.005  -0.192  1.00  0.00     0.018 A 
ATOM     17  C   UNL     1      -0.526  -2.834  -0.374  1.00  0.00     0.084 A 
ATOM     18  C   UNL     1       0.673  -2.893  -1.206  1.00  0.00     0.345 C 
ATOM     19  O   UNL     1       0.698  -3.209  -2.381  1.00  0.00    -0.246 OA
ATOM     20  O   UNL     1       1.756  -2.756  -0.375  1.00  0.00    -0.420 OA
ENDROOT
BRANCH   1  21
ATOM     21  O   UNL     1       5.472  -0.016   0.265  1.00  0.00    -0.497 OA
ATOM     22  C   UNL     1       6.099   1.243   0.491  1.00  0.00     0.278 C 
ENDBRANCH   1  21
BRANCH  10  23
ATOM     23  C   UNL     1      -2.282   0.792  -0.843  1.00  0.00     0.121 C 
ATOM     24  C   UNL     1      -2.516   1.842  -1.926  1.00  0.00     0.028 C 
ATOM     25  N   UNL     1      -3.266   1.132   0.211  1.00  0.00    -0.307 NA
ATOM     26  C   UNL     1      -3.144   3.033  -1.212  1.00  0.00     0.017 C 
ATOM     27  C   UNL     1      -3.318   2.599   0.233  1.00  0.00     0.081 C 
ATOM     28  H   UNL     1      -4.179   0.801  -0.105  1.00  0.00     0.123 HD
ENDBRANCH  10  23
TORSDOF 2
