REMARK SMILES CC1=C([C@@H](C)[C@@H](C)OC=O)C(=O)C2=C(C1=O)[C@H]1O[C@@H](C)[C@H](C)c3c(C)c(O)cc(c31)O2
REMARK SMILES IDX 4 1 5 2 3 3 2 4 15 5 11 6 14 7 16 8 12 9 13 10 17 11 31 12
REMARK SMILES IDX 18 13 30 14 29 15 19 16 23 17 28 18 21 19 24 20 26 21 1 22
REMARK SMILES IDX 20 23 22 24 25 25 27 26 6 28 7 29 8 30 9 31 10 32
REMARK H PARENT 27 27
ROOT
ATOM      1  C   UNL     1       4.222   0.223   0.624  1.00  0.00     0.061 C 
ATOM      2  C   UNL     1       4.575  -0.596   1.879  1.00  0.00     0.017 C 
ENDROOT
BRANCH   1   3
ATOM      3  C   UNL     1       2.791  -0.043   0.145  1.00  0.00     0.017 C 
ATOM      4  C   UNL     1       2.267  -1.225  -0.245  1.00  0.00     0.005 C 
ATOM      5  C   UNL     1       0.834  -1.320  -0.668  1.00  0.00     0.192 C 
ATOM      6  C   UNL     1       1.924   1.183   0.102  1.00  0.00     0.225 C 
ATOM      7  C   UNL     1      -0.053  -0.187  -0.367  1.00  0.00     0.080 C 
ATOM      8  O   UNL     1       0.418  -2.308  -1.265  1.00  0.00    -0.289 OA
ATOM      9  O   UNL     1       2.407   2.308   0.201  1.00  0.00    -0.285 OA
ATOM     10  C   UNL     1       0.459   1.007  -0.051  1.00  0.00     0.185 C 
ATOM     11  C   UNL     1      -1.517  -0.385  -0.553  1.00  0.00     0.191 C 
ATOM     12  O   UNL     1      -0.315   2.152   0.101  1.00  0.00    -0.452 OA
ATOM     13  O   UNL     1      -1.983  -1.463   0.261  1.00  0.00    -0.365 OA
ATOM     14  C   UNL     1      -2.324   0.809  -0.128  1.00  0.00     0.032 A 
ATOM     15  C   UNL     1      -1.683   2.022   0.126  1.00  0.00     0.137 A 
ATOM     16  C   UNL     1      -3.285  -1.871  -0.181  1.00  0.00     0.123 C 
ATOM     17  C   UNL     1      -3.721   0.682   0.038  1.00  0.00    -0.026 A 
ATOM     18  C   UNL     1      -2.417   3.150   0.462  1.00  0.00     0.094 A 
ATOM     19  C   UNL     1      -4.333  -0.708  -0.133  1.00  0.00     0.046 C 
ATOM     20  C   UNL     1      -4.470   1.820   0.423  1.00  0.00    -0.005 A 
ATOM     21  C   UNL     1      -3.799   3.046   0.592  1.00  0.00     0.122 A 
ATOM     22  C   UNL     1       2.982  -2.544  -0.345  1.00  0.00     0.049 C 
ATOM     23  C   UNL     1      -3.712  -3.041   0.702  1.00  0.00     0.039 C 
ATOM     24  C   UNL     1      -5.212  -0.785  -1.389  1.00  0.00     0.015 C 
ATOM     25  C   UNL     1      -5.963   1.784   0.630  1.00  0.00     0.049 C 
BRANCH  21  26
ATOM     26  O   UNL     1      -4.531   4.157   0.914  1.00  0.00    -0.508 OA
ATOM     27  H   UNL     1      -3.932   4.916   1.005  1.00  0.00     0.293 HD
ENDBRANCH  21  26
ENDBRANCH   1   3
BRANCH   1  28
ATOM     28  C   UNL     1       5.303   0.107  -0.483  1.00  0.00     0.180 C 
ATOM     29  C   UNL     1       5.035   1.044  -1.662  1.00  0.00     0.053 C 
BRANCH  28  30
ATOM     30  O   UNL     1       6.577   0.474   0.097  1.00  0.00    -0.464 OA
BRANCH  30  31
ATOM     31  C   UNL     1       7.674  -0.108  -0.446  1.00  0.00     0.447 C 
ATOM     32  O   UNL     1       7.695  -0.915  -1.361  1.00  0.00    -0.256 OA
ENDBRANCH  30  31
ENDBRANCH  28  30
ENDBRANCH   1  28
TORSDOF 5
