REMARK SMILES COc1cc2c(c(O)c1Cl)C(=O)c1c(O)cc(C[C@H](C)O)cc1[C@H]2[C@H]1c2cc(C[C@@H](C)O)cc(O)c2C(=O)c2c1cc(OC)c(Cl)c2O
REMARK SMILES IDX 3 1 4 2 5 3 6 4 11 5 12 6 13 7 14 8 16 9 17 10 22 11 23 12
REMARK SMILES IDX 24 13 7 14 9 15 10 16 2 17 1 18 8 19 25 21 26 22 40 23 27 24
REMARK SMILES IDX 36 25 39 26 41 27 28 28 34 29 37 30 47 31 42 32 33 33 38 34
REMARK SMILES IDX 45 35 46 36 29 37 30 38 31 39 32 40 35 42 48 44 43 46 44 47
REMARK SMILES IDX 15 48 18 50 19 51 20 52 21 53
REMARK H PARENT 8 20 32 41 35 43 48 45 15 49 21 54
ROOT
ATOM      1  C   UNL     1      -1.598  -0.212   4.547  1.00  0.00     0.141 A 
ATOM      2  C   UNL     1      -0.879  -0.468   3.373  1.00  0.00     0.053 A 
ATOM      3  C   UNL     1      -1.278   0.085   2.141  1.00  0.00    -0.021 A 
ATOM      4  C   UNL     1      -2.430   0.884   2.093  1.00  0.00     0.070 A 
ATOM      5  C   UNL     1      -2.883   1.416   0.788  1.00  0.00     0.201 C 
ATOM      6  O   UNL     1      -3.748   2.288   0.746  1.00  0.00    -0.288 OA
ATOM      7  C   UNL     1      -2.338   0.838  -0.457  1.00  0.00     0.068 A 
ATOM      8  C   UNL     1      -2.981   1.057  -1.681  1.00  0.00     0.127 A 
ATOM      9  C   UNL     1      -2.525   0.434  -2.838  1.00  0.00     0.050 A 
ATOM     10  C   UNL     1      -1.427  -0.431  -2.786  1.00  0.00    -0.041 A 
ATOM     11  C   UNL     1      -0.781  -0.642  -1.559  1.00  0.00     0.009 A 
ATOM     12  C   UNL     1      -1.203   0.017  -0.391  1.00  0.00    -0.024 A 
ATOM     13  C   UNL     1      -0.414  -0.129   0.902  1.00  0.00     0.063 C 
ATOM     14  C   UNL     1      -3.144   1.170   3.266  1.00  0.00     0.149 A 
ATOM     15  C   UNL     1      -2.728   0.625   4.489  1.00  0.00     0.125 A 
ATOM     16  Cl  UNL     1      -3.611   0.991   5.938  1.00  0.00    -0.076 Cl
ENDROOT
BRANCH   1  17
ATOM     17  O   UNL     1      -1.252  -0.703   5.779  1.00  0.00    -0.495 OA
ATOM     18  C   UNL     1      -0.261  -1.720   5.842  1.00  0.00     0.278 C 
ENDBRANCH   1  17
BRANCH  14  19
ATOM     19  O   UNL     1      -4.247   1.989   3.253  1.00  0.00    -0.505 OA
ATOM     20  H   UNL     1      -4.400   2.313   2.338  1.00  0.00     0.293 HD
ENDBRANCH  14  19
BRANCH  13  21
ATOM     21  C   UNL     1       0.900   0.761   0.959  1.00  0.00     0.063 C 
ATOM     22  C   UNL     1       1.982   0.206   0.047  1.00  0.00    -0.024 A 
ATOM     23  C   UNL     1       0.662   2.252   0.739  1.00  0.00    -0.021 A 
ATOM     24  C   UNL     1       2.684  -0.957   0.412  1.00  0.00     0.009 A 
ATOM     25  C   UNL     1       2.240   0.791  -1.200  1.00  0.00     0.068 A 
ATOM     26  C   UNL     1       0.912   2.855  -0.511  1.00  0.00     0.070 A 
ATOM     27  C   UNL     1       0.180   3.048   1.796  1.00  0.00     0.053 A 
ATOM     28  C   UNL     1       3.612  -1.545  -0.461  1.00  0.00    -0.041 A 
ATOM     29  C   UNL     1       3.153   0.195  -2.079  1.00  0.00     0.127 A 
ATOM     30  C   UNL     1       1.531   2.032  -1.585  1.00  0.00     0.201 C 
ATOM     31  C   UNL     1       0.643   4.221  -0.697  1.00  0.00     0.149 A 
ATOM     32  C   UNL     1      -0.113   4.400   1.599  1.00  0.00     0.141 A 
ATOM     33  C   UNL     1       3.839  -0.959  -1.711  1.00  0.00     0.050 A 
ATOM     34  O   UNL     1       1.508   2.337  -2.772  1.00  0.00    -0.288 OA
ATOM     35  C   UNL     1       0.127   4.989   0.355  1.00  0.00     0.125 A 
ATOM     36  Cl  UNL     1      -0.197   6.671   0.099  1.00  0.00    -0.076 Cl
BRANCH  28  37
ATOM     37  C   UNL     1       4.333  -2.811  -0.068  1.00  0.00     0.067 C 
BRANCH  37  38
ATOM     38  C   UNL     1       3.454  -4.068  -0.149  1.00  0.00     0.115 C 
ATOM     39  C   UNL     1       3.124  -4.481  -1.579  1.00  0.00     0.038 C 
BRANCH  38  40
ATOM     40  O   UNL     1       4.131  -5.150   0.496  1.00  0.00    -0.393 OA
ATOM     41  H   UNL     1       4.911  -5.378  -0.039  1.00  0.00     0.210 HD
ENDBRANCH  38  40
ENDBRANCH  37  38
ENDBRANCH  28  37
BRANCH  29  42
ATOM     42  O   UNL     1       3.418   0.689  -3.327  1.00  0.00    -0.507 OA
ATOM     43  H   UNL     1       2.791   1.432  -3.494  1.00  0.00     0.293 HD
ENDBRANCH  29  42
BRANCH  31  44
ATOM     44  O   UNL     1       0.919   4.821  -1.898  1.00  0.00    -0.505 OA
ATOM     45  H   UNL     1       0.636   5.753  -1.851  1.00  0.00     0.293 HD
ENDBRANCH  31  44
BRANCH  32  46
ATOM     46  O   UNL     1      -0.547   5.179   2.639  1.00  0.00    -0.495 OA
ATOM     47  C   UNL     1      -1.783   4.723   3.191  1.00  0.00     0.278 C 
ENDBRANCH  32  46
ENDBRANCH  13  21
BRANCH   8  48
ATOM     48  O   UNL     1      -4.079   1.862  -1.817  1.00  0.00    -0.507 OA
ATOM     49  H   UNL     1      -4.253   2.294  -0.952  1.00  0.00     0.293 HD
ENDBRANCH   8  48
BRANCH  10  50
ATOM     50  C   UNL     1      -0.939  -1.123  -4.036  1.00  0.00     0.067 C 
BRANCH  50  51
ATOM     51  C   UNL     1      -1.845  -2.271  -4.506  1.00  0.00     0.115 C 
ATOM     52  C   UNL     1      -1.859  -3.450  -3.540  1.00  0.00     0.038 C 
BRANCH  51  53
ATOM     53  O   UNL     1      -1.357  -2.733  -5.768  1.00  0.00    -0.393 OA
ATOM     54  H   UNL     1      -1.987  -3.395  -6.101  1.00  0.00     0.210 HD
ENDBRANCH  51  53
ENDBRANCH  50  51
ENDBRANCH  10  50
TORSDOF 13
