REMARK SMILES C/C=C/C(=O)c1c(OC)cc(=O)oc1C
REMARK SMILES IDX 6 1 14 2 15 3 13 4 11 5 12 6 10 7 7 8 4 9 5 10 3 11 2 12
REMARK SMILES IDX 1 13 8 14 9 15
REMARK H PARENT
ROOT
ATOM      1  C   UNL     1      -0.641   0.621  -0.325  1.00  0.00     0.102 C 
ATOM      2  C   UNL     1      -1.172   1.856  -0.252  1.00  0.00     0.120 C 
ATOM      3  C   UNL     1      -0.512   3.145  -0.642  1.00  0.00     0.089 C 
ATOM      4  O   UNL     1      -2.482   2.055   0.264  1.00  0.00    -0.427 OA
ATOM      5  C   UNL     1      -3.249   1.013   0.691  1.00  0.00     0.339 C 
ATOM      6  O   UNL     1      -4.376   1.163   1.150  1.00  0.00    -0.246 OA
ATOM      7  C   UNL     1      -2.668  -0.333   0.583  1.00  0.00     0.141 C 
ATOM      8  C   UNL     1      -1.430  -0.521   0.102  1.00  0.00     0.140 C 
ENDROOT
BRANCH   1   9
ATOM      9  C   UNL     1       0.727   0.460  -0.903  1.00  0.00     0.192 C 
ATOM     10  O   UNL     1       0.998   0.851  -2.034  1.00  0.00    -0.289 OA
BRANCH   9  11
ATOM     11  C   UNL     1       1.739  -0.159  -0.001  1.00  0.00     0.048 C 
ATOM     12  C   UNL     1       3.002  -0.341  -0.417  1.00  0.00    -0.026 C 
ATOM     13  C   UNL     1       4.075  -0.953   0.420  1.00  0.00     0.036 C 
ENDBRANCH   9  11
ENDBRANCH   1   9
BRANCH   8  14
ATOM     14  O   UNL     1      -0.802  -1.736  -0.058  1.00  0.00    -0.496 OA
ATOM     15  C   UNL     1      -1.530  -2.919   0.257  1.00  0.00     0.278 C 
ENDBRANCH   8  14
TORSDOF 3
