REMARK SMILES C=C(C=O)[C@@H]1C[C@@]2(C)C(=CC1=O)[C@H](OC(=O)/C=C/C=C/C(C)CC(C)CC)CC[C@@H]2C(=O)O
REMARK SMILES IDX 17 1 18 2 15 3 16 4 14 5 13 6 5 7 6 8 11 9 7 10 10 11 12 12
REMARK SMILES IDX 9 13 30 14 29 15 28 16 8 17 2 18 1 19 3 20 4 21 31 22 32 23
REMARK SMILES IDX 33 24 19 26 20 27 21 28 22 29 23 30 24 31 25 32 26 33 27 34
REMARK H PARENT 33 25
ROOT
ATOM      1  C   UNL     1       1.168   0.834   1.085  1.00  0.00     0.093 C 
ATOM      2  C   UNL     1       2.415   1.135   1.476  1.00  0.00     0.007 C 
ENDROOT
BRANCH   1   3
ATOM      3  C   UNL     1       0.080   0.755   2.080  1.00  0.00     0.331 C 
ATOM      4  O   UNL     1       0.200   0.943   3.278  1.00  0.00    -0.247 OA
BRANCH   3   5
ATOM      5  O   UNL     1      -1.060   0.434   1.421  1.00  0.00    -0.455 OA
BRANCH   5   6
ATOM      6  C   UNL     1      -2.238   0.307   2.236  1.00  0.00     0.204 C 
ATOM      7  C   UNL     1      -5.581   1.117  -0.593  1.00  0.00     0.094 C 
ATOM      8  C   UNL     1      -5.279  -0.324  -0.163  1.00  0.00     0.029 C 
ATOM      9  C   UNL     1      -5.172   2.114   0.484  1.00  0.00     0.163 C 
ATOM     10  C   UNL     1      -3.813  -0.545   0.319  1.00  0.00     0.007 C 
ATOM     11  C   UNL     1      -4.082   1.730   1.414  1.00  0.00     0.051 C 
ATOM     12  O   UNL     1      -5.627   3.256   0.555  1.00  0.00    -0.294 OA
ATOM     13  C   UNL     1      -3.429   0.556   1.324  1.00  0.00    -0.020 C 
ATOM     14  C   UNL     1      -3.747  -1.948   1.010  1.00  0.00     0.109 C 
ATOM     15  C   UNL     1      -2.466  -2.178   1.823  1.00  0.00     0.020 C 
ATOM     16  C   UNL     1      -2.293  -1.083   2.871  1.00  0.00     0.051 C 
ATOM     17  C   UNL     1      -2.863  -0.458  -0.898  1.00  0.00     0.017 C 
BRANCH   7  18
ATOM     18  C   UNL     1      -7.033   1.314  -0.969  1.00  0.00    -0.004 C 
ATOM     19  C   UNL     1      -7.451   1.596  -2.214  1.00  0.00     0.017 C 
BRANCH  18  20
ATOM     20  C   UNL     1      -8.069   1.236   0.099  1.00  0.00     0.255 C 
ATOM     21  O   UNL     1      -7.815   0.880   1.243  1.00  0.00    -0.298 OA
ENDBRANCH  18  20
ENDBRANCH   7  18
BRANCH  14  22
ATOM     22  C   UNL     1      -3.916  -3.093   0.031  1.00  0.00     0.307 C 
ATOM     23  O   UNL     1      -3.048  -3.601  -0.658  1.00  0.00    -0.252 OA
BRANCH  22  24
ATOM     24  O   UNL     1      -5.186  -3.535  -0.038  1.00  0.00    -0.481 OA
ATOM     25  H   UNL     1      -5.152  -4.276  -0.679  1.00  0.00     0.296 HD
ENDBRANCH  22  24
ENDBRANCH  14  22
ENDBRANCH   5   6
ENDBRANCH   3   5
ENDBRANCH   1   3
BRANCH   2  26
ATOM     26  C   UNL     1       3.524   1.225   0.553  1.00  0.00    -0.004 C 
ATOM     27  C   UNL     1       4.771   1.524   0.951  1.00  0.00    -0.024 C 
BRANCH  27  28
ATOM     28  C   UNL     1       6.012   1.648   0.088  1.00  0.00     0.009 C 
ATOM     29  C   UNL     1       6.269   3.144  -0.143  1.00  0.00     0.012 C 
BRANCH  28  30
ATOM     30  C   UNL     1       6.024   0.900  -1.268  1.00  0.00     0.010 C 
BRANCH  30  31
ATOM     31  C   UNL     1       6.423  -0.597  -1.199  1.00  0.00    -0.014 C 
ATOM     32  C   UNL     1       5.468  -1.440  -0.354  1.00  0.00     0.007 C 
BRANCH  31  33
ATOM     33  C   UNL     1       6.530  -1.145  -2.640  1.00  0.00    -0.000 C 
ATOM     34  C   UNL     1       7.119  -2.547  -2.728  1.00  0.00     0.004 C 
ENDBRANCH  31  33
ENDBRANCH  30  31
ENDBRANCH  28  30
ENDBRANCH  27  28
ENDBRANCH   2  26
TORSDOF 12
