REMARK SMILES C/C=C/C1=CC=C/C(=C2\C(=O)CN=C2O)O1
REMARK SMILES IDX 4 1 5 2 6 3 7 4 8 5 9 6 10 7 11 8 12 9 13 10 14 11 16 12
REMARK SMILES IDX 3 13 2 14 1 15 15 16
REMARK H PARENT 15 17
ROOT
ATOM      1  C   UNL     1      -1.261  -0.643  -0.302  1.00  0.00     0.127 C 
ATOM      2  C   UNL     1      -1.207  -1.983  -0.336  1.00  0.00     0.047 C 
ATOM      3  C   UNL     1       0.064  -2.642  -0.199  1.00  0.00     0.008 C 
ATOM      4  C   UNL     1       1.181  -1.915  -0.058  1.00  0.00     0.048 C 
ATOM      5  C   UNL     1       1.148  -0.457  -0.040  1.00  0.00     0.143 C 
ATOM      6  C   UNL     1       2.229   0.324   0.096  1.00  0.00     0.124 C 
ATOM      7  C   UNL     1       3.648  -0.050   0.256  1.00  0.00     0.193 C 
ATOM      8  O   UNL     1       4.112  -1.177   0.294  1.00  0.00    -0.292 OA
ATOM      9  C   UNL     1       4.441   1.237   0.369  1.00  0.00     0.227 C 
ATOM     10  N   UNL     1       3.442   2.353   0.266  1.00  0.00    -0.243 NA
ATOM     11  C   UNL     1       2.291   1.778   0.122  1.00  0.00     0.221 C 
ATOM     12  O   UNL     1      -0.115   0.135  -0.177  1.00  0.00    -0.456 OA
ENDROOT
BRANCH   1  13
ATOM     13  C   UNL     1      -2.465   0.145  -0.460  1.00  0.00     0.042 C 
ATOM     14  C   UNL     1      -3.686  -0.192  -0.014  1.00  0.00    -0.027 C 
ATOM     15  C   UNL     1      -4.897   0.666  -0.188  1.00  0.00     0.036 C 
ENDBRANCH   1  13
BRANCH  11  16
ATOM     16  O   UNL     1       1.196   2.516  -0.000  1.00  0.00    -0.493 OA
ATOM     17  H   UNL     1       1.459   3.451   0.046  1.00  0.00     0.295 HD
ENDBRANCH  11  16
TORSDOF 2
