REMARK SMILES C=CC(C)(C)c1ccc(C2=C(CC(C)C)C(=O)N(O)C2=O)cc1O
REMARK SMILES IDX 10 1 11 2 16 3 17 4 18 5 20 6 21 7 9 8 6 9 7 10 23 11 8 12
REMARK SMILES IDX 22 13 3 14 4 15 5 16 2 17 1 18 24 19 12 21 13 22 14 23 15 24
REMARK SMILES IDX 19 25
REMARK H PARENT 24 20 19 26
ROOT
ATOM      1  C   UNL     1      -1.838   1.390  -0.207  1.00  0.00     0.058 C 
ATOM      2  C   UNL     1      -2.765   1.111   0.729  1.00  0.00     0.033 C 
ATOM      3  C   UNL     1      -4.001   1.852   0.375  1.00  0.00     0.281 C 
ATOM      4  O   UNL     1      -5.005   1.876   1.064  1.00  0.00    -0.267 OA
ATOM      5  N   UNL     1      -3.749   2.454  -0.803  1.00  0.00    -0.148 N 
ATOM      6  C   UNL     1      -2.489   2.247  -1.228  1.00  0.00     0.285 C 
ATOM      7  O   UNL     1      -1.975   2.680  -2.246  1.00  0.00    -0.266 OA
ENDROOT
BRANCH   1   8
ATOM      8  C   UNL     1      -0.454   0.924  -0.287  1.00  0.00    -0.009 A 
ATOM      9  C   UNL     1       2.238  -0.022  -0.468  1.00  0.00     0.003 A 
ATOM     10  C   UNL     1       1.755   0.658   0.675  1.00  0.00     0.009 A 
ATOM     11  C   UNL     1       1.337  -0.165  -1.533  1.00  0.00     0.120 A 
ATOM     12  C   UNL     1       0.439   1.122   0.765  1.00  0.00     0.009 A 
ATOM     13  C   UNL     1       0.013   0.291  -1.444  1.00  0.00     0.055 A 
BRANCH   9  14
ATOM     14  C   UNL     1       3.714  -0.490  -0.472  1.00  0.00     0.011 C 
ATOM     15  C   UNL     1       4.588   0.759  -0.735  1.00  0.00     0.021 C 
ATOM     16  C   UNL     1       4.085  -1.536  -1.547  1.00  0.00     0.021 C 
BRANCH  14  17
ATOM     17  C   UNL     1       4.038  -1.189   0.860  1.00  0.00    -0.024 C 
ATOM     18  C   UNL     1       4.975  -0.860   1.761  1.00  0.00     0.005 C 
ENDBRANCH  14  17
ENDBRANCH   9  14
BRANCH  11  19
ATOM     19  O   UNL     1       1.732  -0.743  -2.705  1.00  0.00    -0.508 OA
ATOM     20  H   UNL     1       1.031  -0.648  -3.370  1.00  0.00     0.293 HD
ENDBRANCH  11  19
ENDBRANCH   1   8
BRANCH   2  21
ATOM     21  C   UNL     1      -2.699   0.280   1.972  1.00  0.00     0.045 C 
BRANCH  21  22
ATOM     22  C   UNL     1      -3.157  -1.189   1.838  1.00  0.00    -0.013 C 
ATOM     23  C   UNL     1      -2.281  -1.992   0.875  1.00  0.00     0.008 C 
ATOM     24  C   UNL     1      -4.630  -1.324   1.450  1.00  0.00     0.008 C 
ENDBRANCH  21  22
ENDBRANCH   2  21
BRANCH   5  25
ATOM     25  O   UNL     1      -4.657   3.252  -1.485  1.00  0.00    -0.278 OA
ATOM     26  H   UNL     1      -4.106   3.631  -2.198  1.00  0.00     0.247 HD
ENDBRANCH   5  25
TORSDOF 7
