REMARK SMILES COC(=O)[C@]1(Cc2ccc(O)c(C[C@H](O)C(C)(C)O)c2)OC(=O)C(O)=C1c1ccc(O)cc1
REMARK SMILES IDX 7 1 8 2 9 3 10 4 12 5 20 6 6 7 5 8 21 9 26 10 22 11 24 12
REMARK SMILES IDX 23 13 3 14 4 15 2 16 1 17 27 18 28 19 33 20 29 21 32 22
REMARK SMILES IDX 30 23 31 24 25 26 13 28 14 29 15 30 16 32 17 33 18 34 19 35
REMARK SMILES IDX 11 37
REMARK H PARENT 31 25 25 27 15 31 19 36 11 38
ROOT
ATOM      1  C   UNL     1      -0.710  -0.317   1.363  1.00  0.00    -0.042 A 
ATOM      2  C   UNL     1      -1.027   0.913   1.955  1.00  0.00     0.008 A 
ATOM      3  C   UNL     1      -0.222   2.033   1.744  1.00  0.00     0.047 A 
ATOM      4  C   UNL     1       0.917   1.925   0.951  1.00  0.00     0.118 A 
ATOM      5  C   UNL     1       1.280   0.707   0.372  1.00  0.00    -0.003 A 
ATOM      6  C   UNL     1       0.461  -0.412   0.597  1.00  0.00     0.011 A 
ENDROOT
BRANCH   1   7
ATOM      7  C   UNL     1      -1.612  -1.513   1.560  1.00  0.00     0.102 C 
BRANCH   7   8
ATOM      8  C   UNL     1      -2.512  -1.929   0.373  1.00  0.00     0.242 C 
ATOM      9  O   UNL     1      -3.209  -3.134   0.806  1.00  0.00    -0.436 OA
ATOM     10  C   UNL     1      -3.648  -1.005   0.028  1.00  0.00     0.064 C 
ATOM     11  C   UNL     1      -4.536  -3.038   0.528  1.00  0.00     0.375 C 
ATOM     12  C   UNL     1      -4.809  -1.670   0.054  1.00  0.00     0.210 C 
ATOM     13  O   UNL     1      -5.349  -3.929   0.687  1.00  0.00    -0.242 OA
BRANCH   8  14
ATOM     14  C   UNL     1      -1.729  -2.437  -0.861  1.00  0.00     0.355 C 
ATOM     15  O   UNL     1      -1.957  -2.121  -2.023  1.00  0.00    -0.247 OA
BRANCH  14  16
ATOM     16  O   UNL     1      -0.773  -3.344  -0.497  1.00  0.00    -0.466 OA
ATOM     17  C   UNL     1      -0.050  -3.909  -1.593  1.00  0.00     0.282 C 
ENDBRANCH  14  16
ENDBRANCH   8  14
BRANCH  10  18
ATOM     18  C   UNL     1      -3.525   0.428  -0.270  1.00  0.00    -0.014 A 
ATOM     19  C   UNL     1      -2.644   0.924  -1.238  1.00  0.00     0.012 A 
ATOM     20  C   UNL     1      -4.300   1.351   0.459  1.00  0.00     0.012 A 
ATOM     21  C   UNL     1      -2.537   2.299  -1.468  1.00  0.00     0.047 A 
ATOM     22  C   UNL     1      -4.198   2.725   0.227  1.00  0.00     0.047 A 
ATOM     23  C   UNL     1      -3.312   3.188  -0.736  1.00  0.00     0.115 A 
BRANCH  23  24
ATOM     24  O   UNL     1      -3.171   4.518  -0.993  1.00  0.00    -0.508 OA
ATOM     25  H   UNL     1      -3.828   5.011  -0.475  1.00  0.00     0.293 HD
ENDBRANCH  23  24
ENDBRANCH  10  18
BRANCH  12  26
ATOM     26  O   UNL     1      -6.062  -1.216  -0.251  1.00  0.00    -0.502 OA
ATOM     27  H   UNL     1      -5.973  -0.372  -0.727  1.00  0.00     0.293 HD
ENDBRANCH  12  26
ENDBRANCH   7   8
ENDBRANCH   1   7
BRANCH   5  28
ATOM     28  C   UNL     1       2.523   0.559  -0.485  1.00  0.00     0.074 C 
BRANCH  28  29
ATOM     29  C   UNL     1       3.824   0.579   0.349  1.00  0.00     0.150 C 
BRANCH  29  30
ATOM     30  O   UNL     1       4.254   1.929   0.561  1.00  0.00    -0.390 OA
ATOM     31  H   UNL     1       3.447   2.454   0.740  1.00  0.00     0.211 HD
ENDBRANCH  29  30
BRANCH  29  32
ATOM     32  C   UNL     1       4.975  -0.238  -0.307  1.00  0.00     0.085 C 
ATOM     33  C   UNL     1       5.313   0.257  -1.717  1.00  0.00     0.044 C 
ATOM     34  C   UNL     1       6.243  -0.186   0.558  1.00  0.00     0.044 C 
BRANCH  32  35
ATOM     35  O   UNL     1       4.579  -1.614  -0.420  1.00  0.00    -0.388 OA
ATOM     36  H   UNL     1       4.563  -1.990   0.478  1.00  0.00     0.211 HD
ENDBRANCH  32  35
ENDBRANCH  29  32
ENDBRANCH  28  29
ENDBRANCH   5  28
BRANCH   4  37
ATOM     37  O   UNL     1       1.711   3.018   0.743  1.00  0.00    -0.508 OA
ATOM     38  H   UNL     1       1.211   3.809   1.013  1.00  0.00     0.293 HD
ENDBRANCH   4  37
TORSDOF 13
