REMARK SMILES COC(=O)CCc1cccc(N(Cc2ccc(-c3ccc(N(C)C)cc3)cc2)C(=O)C2CCCCC2)c1
REMARK SMILES IDX 7 1 8 2 9 3 10 4 11 5 37 6 6 7 5 8 3 9 4 10 2 11 1 12 12 13
REMARK SMILES IDX 13 14 14 15 15 16 28 17 16 18 27 19 17 20 18 21 19 22 26 23
REMARK SMILES IDX 20 24 25 25 21 26 22 27 23 28 24 29 29 30 30 31 31 32 32 33
REMARK SMILES IDX 36 34 33 35 35 36 34 37
REMARK H PARENT
ROOT
ATOM      1  C21 FEX A   1      -3.455   2.702   2.019  1.00  0.00    -0.045 A 
ATOM      2  C20 FEX A   1      -3.575   3.655   1.005  1.00  0.00     0.004 A 
ATOM      3  C19 FEX A   1      -3.208   3.334  -0.298  1.00  0.00     0.002 A 
ATOM      4  C18 FEX A   1      -2.714   2.061  -0.596  1.00  0.00     0.026 A 
ATOM      5  C17 FEX A   1      -2.572   1.081   0.396  1.00  0.00     0.044 A 
ATOM      6  C22 FEX A   1      -2.957   1.424   1.704  1.00  0.00     0.030 A 
ENDROOT
BRANCH   1   7
ATOM      7  C23 FEX A   1      -3.896   3.026   3.427  1.00  0.00     0.047 C 
BRANCH   7   8
ATOM      8  C24 FEX A   1      -5.320   2.559   3.720  1.00  0.00     0.127 C 
BRANCH   8   9
ATOM      9  C25 FEX A   1      -6.347   3.410   3.014  1.00  0.00     0.305 C 
ATOM     10  O3  FEX A   1      -6.275   4.624   2.883  1.00  0.00    -0.252 OA
BRANCH   9  11
ATOM     11  O2  FEX A   1      -7.384   2.635   2.589  1.00  0.00    -0.469 OA
ATOM     12  C26 FEX A   1      -8.401   3.357   1.895  1.00  0.00     0.282 C 
ENDBRANCH   9  11
ENDBRANCH   8   9
ENDBRANCH   7   8
ENDBRANCH   1   7
BRANCH   5  13
ATOM     13  N2  FEX A   1      -2.029  -0.225   0.090  1.00  0.00    -0.308 N 
BRANCH  13  14
ATOM     14  C15 FEX A   1      -1.138  -0.837   1.095  1.00  0.00     0.161 C 
BRANCH  14  15
ATOM     15  C12 FEX A   1       0.343  -0.674   0.802  1.00  0.00    -0.028 A 
ATOM     16  C13 FEX A   1       0.877   0.523   0.311  1.00  0.00     0.006 A 
ATOM     17  C11 FEX A   1       1.226  -1.725   1.091  1.00  0.00     0.006 A 
ATOM     18  C14 FEX A   1       2.251   0.653   0.080  1.00  0.00     0.009 A 
ATOM     19  C10 FEX A   1       2.599  -1.593   0.858  1.00  0.00     0.009 A 
ATOM     20  C9  FEX A   1       3.136  -0.403   0.345  1.00  0.00    -0.018 A 
BRANCH  20  21
ATOM     21  C6  FEX A   1       4.580  -0.264   0.100  1.00  0.00    -0.018 A 
ATOM     22  C7  FEX A   1       5.311   0.798   0.638  1.00  0.00     0.011 A 
ATOM     23  C5  FEX A   1       5.280  -1.194  -0.674  1.00  0.00     0.011 A 
ATOM     24  C8  FEX A   1       6.691   0.926   0.404  1.00  0.00     0.026 A 
ATOM     25  C4  FEX A   1       6.659  -1.058  -0.905  1.00  0.00     0.026 A 
ATOM     26  C1  FEX A   1       7.408   0.012  -0.386  1.00  0.00     0.036 A 
BRANCH  26  27
ATOM     27  N1  FEX A   1       8.786   0.134  -0.605  1.00  0.00    -0.378 N 
ATOM     28  C2  FEX A   1       9.402  -0.647  -1.676  1.00  0.00     0.143 C 
ATOM     29  C3  FEX A   1       9.441   1.404  -0.295  1.00  0.00     0.143 C 
ENDBRANCH  26  27
ENDBRANCH  20  21
ENDBRANCH  14  15
ENDBRANCH  13  14
BRANCH  13  30
ATOM     30  C16 FEX A   1      -2.278  -0.818  -1.163  1.00  0.00     0.230 C 
ATOM     31  O1  FEX A   1      -3.026  -0.322  -2.012  1.00  0.00    -0.274 OA
BRANCH  30  32
ATOM     32  C27 FEX A   1      -1.686  -2.212  -1.450  1.00  0.00     0.079 C 
ATOM     33  C28 FEX A   1      -2.654  -3.291  -0.929  1.00  0.00     0.013 C 
ATOM     34  C32 FEX A   1      -1.383  -2.376  -2.956  1.00  0.00     0.013 C 
ATOM     35  C29 FEX A   1      -2.512  -4.602  -1.693  1.00  0.00     0.001 C 
ATOM     36  C31 FEX A   1      -2.523  -3.044  -3.718  1.00  0.00     0.001 C 
ATOM     37  C30 FEX A   1      -2.835  -4.438  -3.177  1.00  0.00     0.000 C 
ENDBRANCH  30  32
ENDBRANCH  13  30
ENDBRANCH   5  13
TORSDOF 11
