REMARK SMILES COc1ccc(S(=O)(=O)Nc2ccc(NS(=O)(=O)c3ccc(OC)cc3)c3ccccc23)cc1
REMARK SMILES IDX 11 1 32 2 31 3 30 4 29 5 28 6 27 7 14 8 13 9 12 10 10 11
REMARK SMILES IDX 7 13 8 14 9 15 6 16 3 17 4 18 34 19 5 20 33 21 2 22 1 23
REMARK SMILES IDX 15 24 16 26 17 27 18 28 19 29 20 30 26 31 21 32 25 33 22 34
REMARK SMILES IDX 23 35 24 36
REMARK H PARENT 10 12 15 25
ROOT
ATOM      1  C6  IQK A 701       0.474  -1.116   1.748  1.00  0.00     0.057 A 
ATOM      2  C7  IQK A 701       0.294  -0.156   0.717  1.00  0.00     0.008 A 
ATOM      3  C8  IQK A 701       0.746   1.182   0.824  1.00  0.00     0.011 A 
ATOM      4  C9  IQK A 701       0.559   2.109  -0.201  1.00  0.00     0.001 A 
ATOM      5  C10 IQK A 701      -0.087   1.725  -1.364  1.00  0.00     0.001 A 
ATOM      6  C11 IQK A 701      -0.542   0.414  -1.501  1.00  0.00     0.011 A 
ATOM      7  C12 IQK A 701      -0.365  -0.552  -0.479  1.00  0.00     0.008 A 
ATOM      8  C13 IQK A 701      -0.821  -1.892  -0.597  1.00  0.00     0.057 A 
ATOM      9  C21 IQK A 701      -0.631  -2.810   0.435  1.00  0.00     0.029 A 
ATOM     10  C22 IQK A 701       0.018  -2.426   1.600  1.00  0.00     0.029 A 
ENDROOT
BRANCH   1  11
ATOM     11  N1  IQK A 701       1.169  -0.788   2.952  1.00  0.00    -0.279 N 
ATOM     12  H   UNL     1       1.031   0.133   3.363  1.00  0.00     0.180 HD
BRANCH  11  13
ATOM     13  S1  IQK A 701       2.717  -1.405   3.215  1.00  0.00     0.261 S 
ATOM     14  O5  IQK A 701       3.252  -0.662   4.338  1.00  0.00    -0.201 OA
ATOM     15  O6  IQK A 701       2.661  -2.851   3.232  1.00  0.00    -0.201 OA
BRANCH  13  16
ATOM     16  C5  IQK A 701       3.617  -0.905   1.765  1.00  0.00     0.088 A 
ATOM     17  C2  IQK A 701       5.048  -0.119  -0.503  1.00  0.00     0.118 A 
ATOM     18  C3  IQK A 701       4.994   0.717   0.615  1.00  0.00     0.048 A 
ATOM     19  C24 IQK A 701       4.394  -1.356  -0.470  1.00  0.00     0.048 A 
ATOM     20  C4  IQK A 701       4.284   0.324   1.754  1.00  0.00     0.026 A 
ATOM     21  C23 IQK A 701       3.686  -1.759   0.663  1.00  0.00     0.026 A 
BRANCH  17  22
ATOM     22  O1  IQK A 701       5.700   0.147  -1.675  1.00  0.00    -0.497 OA
ATOM     23  C1  IQK A 701       6.419   1.372  -1.749  1.00  0.00     0.278 C 
ENDBRANCH  17  22
ENDBRANCH  13  16
ENDBRANCH  11  13
ENDBRANCH   1  11
BRANCH   8  24
ATOM     24  N2  IQK A 701      -1.529  -2.334  -1.756  1.00  0.00    -0.279 N 
ATOM     25  H   UNL     1      -1.240  -1.990  -2.669  1.00  0.00     0.180 HD
BRANCH  24  26
ATOM     26  S2  IQK A 701      -3.187  -2.632  -1.656  1.00  0.00     0.261 S 
ATOM     27  O3  IQK A 701      -3.430  -3.676  -0.684  1.00  0.00    -0.201 OA
ATOM     28  O4  IQK A 701      -3.648  -2.758  -3.023  1.00  0.00    -0.201 OA
BRANCH  26  29
ATOM     29  C14 IQK A 701      -3.845  -1.112  -1.008  1.00  0.00     0.088 A 
ATOM     30  C15 IQK A 701      -4.244  -0.101  -1.886  1.00  0.00     0.026 A 
ATOM     31  C20 IQK A 701      -3.998  -0.955   0.371  1.00  0.00     0.026 A 
ATOM     32  C16 IQK A 701      -4.764   1.094  -1.377  1.00  0.00     0.048 A 
ATOM     33  C19 IQK A 701      -4.514   0.242   0.869  1.00  0.00     0.048 A 
ATOM     34  C17 IQK A 701      -4.897   1.272   0.002  1.00  0.00     0.118 A 
BRANCH  34  35
ATOM     35  O2  IQK A 701      -5.384   2.387   0.625  1.00  0.00    -0.497 OA
ATOM     36  C18 IQK A 701      -5.828   3.450  -0.208  1.00  0.00     0.278 C 
ENDBRANCH  34  35
ENDBRANCH  26  29
ENDBRANCH  24  26
ENDBRANCH   8  24
TORSDOF 8
