REMARK SMILES COc1ccc(S(=O)(=O)Nc2ccc(NS(=O)(=O)c3ccc(OC)cc3)c3ccccc23)cc1
REMARK SMILES IDX 11 1 32 2 31 3 30 4 29 5 28 6 27 7 14 8 13 9 12 10 10 11
REMARK SMILES IDX 7 13 8 14 9 15 6 16 3 17 4 18 34 19 5 20 33 21 2 22 1 23
REMARK SMILES IDX 15 24 16 26 17 27 18 28 19 29 20 30 26 31 21 32 25 33 22 34
REMARK SMILES IDX 23 35 24 36
REMARK H PARENT 10 12 15 25
ROOT
ATOM      1  C   UNL     1       0.299  -1.018  -2.659  1.00  0.00     0.057 A 
ATOM      2  C   UNL     1       0.558  -1.759  -1.480  1.00  0.00     0.008 A 
ATOM      3  C   UNL     1       1.817  -1.740  -0.837  1.00  0.00     0.011 A 
ATOM      4  C   UNL     1       2.049  -2.435   0.348  1.00  0.00     0.001 A 
ATOM      5  C   UNL     1       1.029  -3.180   0.915  1.00  0.00     0.001 A 
ATOM      6  C   UNL     1      -0.215  -3.243   0.286  1.00  0.00     0.011 A 
ATOM      7  C   UNL     1      -0.480  -2.553  -0.924  1.00  0.00     0.008 A 
ATOM      8  C   UNL     1      -1.730  -2.609  -1.599  1.00  0.00     0.057 A 
ATOM      9  C   UNL     1      -1.935  -1.915  -2.793  1.00  0.00     0.029 A 
ATOM     10  C   UNL     1      -0.927  -1.116  -3.318  1.00  0.00     0.029 A 
ENDROOT
BRANCH   1  11
ATOM     11  N   UNL     1       1.260  -0.089  -3.173  1.00  0.00    -0.279 N 
ATOM     12  H   UNL     1       1.503  -0.176  -4.159  1.00  0.00     0.180 HD
BRANCH  11  13
ATOM     13  S   UNL     1       1.050   1.548  -2.769  1.00  0.00     0.261 S 
ATOM     14  O   UNL     1       1.829   2.287  -3.742  1.00  0.00    -0.201 OA
ATOM     15  O   UNL     1      -0.354   1.836  -2.573  1.00  0.00    -0.201 OA
BRANCH  13  16
ATOM     16  C   UNL     1       1.879   1.691  -1.207  1.00  0.00     0.088 A 
ATOM     17  C   UNL     1       3.171   1.962   1.257  1.00  0.00     0.118 A 
ATOM     18  C   UNL     1       3.883   2.144   0.068  1.00  0.00     0.048 A 
ATOM     19  C   UNL     1       1.808   1.655   1.202  1.00  0.00     0.048 A 
ATOM     20  C   UNL     1       3.238   2.014  -1.167  1.00  0.00     0.026 A 
ATOM     21  C   UNL     1       1.156   1.528  -0.025  1.00  0.00     0.026 A 
BRANCH  17  22
ATOM     22  O   UNL     1       3.683   2.056   2.522  1.00  0.00    -0.497 OA
ATOM     23  C   UNL     1       5.058   2.400   2.638  1.00  0.00     0.278 C 
ENDBRANCH  17  22
ENDBRANCH  13  16
ENDBRANCH  11  13
ENDBRANCH   1  11
BRANCH   8  24
ATOM     24  N   UNL     1      -2.833  -3.328  -1.041  1.00  0.00    -0.279 N 
ATOM     25  H   UNL     1      -2.644  -4.153  -0.478  1.00  0.00     0.180 HD
BRANCH  24  26
ATOM     26  S   UNL     1      -4.183  -2.473  -0.490  1.00  0.00     0.261 S 
ATOM     27  O   UNL     1      -4.868  -1.896  -1.626  1.00  0.00    -0.201 OA
ATOM     28  O   UNL     1      -4.868  -3.365   0.422  1.00  0.00    -0.201 OA
BRANCH  26  29
ATOM     29  C   UNL     1      -3.486  -1.149   0.470  1.00  0.00     0.088 A 
ATOM     30  C   UNL     1      -3.358   0.124  -0.094  1.00  0.00     0.026 A 
ATOM     31  C   UNL     1      -3.099  -1.380   1.791  1.00  0.00     0.026 A 
ATOM     32  C   UNL     1      -2.809   1.166   0.658  1.00  0.00     0.048 A 
ATOM     33  C   UNL     1      -2.546  -0.334   2.532  1.00  0.00     0.048 A 
ATOM     34  C   UNL     1      -2.398   0.940   1.973  1.00  0.00     0.118 A 
BRANCH  34  35
ATOM     35  O   UNL     1      -1.834   1.867   2.806  1.00  0.00    -0.497 OA
ATOM     36  C   UNL     1      -1.789   3.210   2.337  1.00  0.00     0.278 C 
ENDBRANCH  34  35
ENDBRANCH  26  29
ENDBRANCH  24  26
ENDBRANCH   8  24
TORSDOF 8
