REMARK SMILES OC[C@H]1NC[C@H](O)[C@@H](O)[C@@H]1O
REMARK SMILES IDX 5 1 6 2 8 3 10 4 3 5 4 6 7 8 9 10 2 12 1 13 11 15
REMARK H PARENT 4 7 7 9 9 11 1 14 11 16
ROOT
ATOM      1  C   UNL     1      -1.119   0.704   1.316  1.00  0.00     0.116 C 
ATOM      2  C   UNL     1      -1.815  -0.315   0.395  1.00  0.00     0.159 C 
ATOM      3  C   UNL     1      -0.860  -0.889  -0.667  1.00  0.00     0.174 C 
ATOM      4  C   UNL     1       0.369   0.004  -0.850  1.00  0.00     0.165 C 
ATOM      5  C   UNL     1       1.124   0.105   0.500  1.00  0.00     0.111 C 
ATOM      6  N   UNL     1       0.254   0.326   1.674  1.00  0.00    -0.307 NA
ATOM      7  H   UNL     1       0.202  -0.544   2.213  1.00  0.00     0.123 HD
ENDROOT
BRANCH   2   8
ATOM      8  O   UNL     1      -2.347  -1.390   1.179  1.00  0.00    -0.389 OA
ATOM      9  H   UNL     1      -2.762  -2.017   0.558  1.00  0.00     0.211 HD
ENDBRANCH   2   8
BRANCH   3  10
ATOM     10  O   UNL     1      -1.533  -1.055  -1.926  1.00  0.00    -0.388 OA
ATOM     11  H   UNL     1      -1.862  -0.185  -2.216  1.00  0.00     0.211 HD
ENDBRANCH   3  10
BRANCH   5  12
ATOM     12  C   UNL     1       2.223   1.187   0.417  1.00  0.00     0.177 C 
BRANCH  12  13
ATOM     13  O   UNL     1       3.229   0.856  -0.539  1.00  0.00    -0.395 OA
ATOM     14  H   UNL     1       2.793   0.371  -1.272  1.00  0.00     0.210 HD
ENDBRANCH  12  13
ENDBRANCH   5  12
BRANCH   4  15
ATOM     15  O   UNL     1       1.228  -0.546  -1.859  1.00  0.00    -0.389 OA
ATOM     16  H   UNL     1       0.642  -0.998  -2.501  1.00  0.00     0.211 HD
ENDBRANCH   4  15
TORSDOF 5
