REMARK SMILES OC[C@H]1NC[C@H](O)[C@@H](O)[C@@H]1O
REMARK SMILES IDX 5 1 6 2 8 3 10 4 3 5 4 6 7 8 9 10 2 12 1 13 11 15
REMARK H PARENT 4 7 7 9 9 11 1 14 11 16
ROOT
ATOM      1  C   UNL     1      -0.661  -1.605  -0.729  1.00  0.00     0.116 C 
ATOM      2  C   UNL     1      -1.663  -0.538  -0.271  1.00  0.00     0.159 C 
ATOM      3  C   UNL     1      -1.057   0.852  -0.468  1.00  0.00     0.174 C 
ATOM      4  C   UNL     1       0.282   0.955   0.266  1.00  0.00     0.165 C 
ATOM      5  C   UNL     1       1.242  -0.160  -0.205  1.00  0.00     0.111 C 
ATOM      6  N   UNL     1       0.641  -1.508  -0.074  1.00  0.00    -0.307 NA
ATOM      7  H   UNL     1       0.576  -1.727   0.925  1.00  0.00     0.123 HD
ENDROOT
BRANCH   2   8
ATOM      8  O   UNL     1      -2.878  -0.607  -1.025  1.00  0.00    -0.389 OA
ATOM      9  H   UNL     1      -3.242  -1.504  -0.907  1.00  0.00     0.211 HD
ENDBRANCH   2   8
BRANCH   3  10
ATOM     10  O   UNL     1      -1.949   1.857   0.044  1.00  0.00    -0.388 OA
ATOM     11  H   UNL     1      -2.820   1.633  -0.341  1.00  0.00     0.211 HD
ENDBRANCH   3  10
BRANCH   5  12
ATOM     12  C   UNL     1       2.563  -0.119   0.592  1.00  0.00     0.177 C 
BRANCH  12  13
ATOM     13  O   UNL     1       2.327  -0.297   1.991  1.00  0.00    -0.395 OA
ATOM     14  H   UNL     1       2.234   0.596   2.369  1.00  0.00     0.210 HD
ENDBRANCH  12  13
ENDBRANCH   5  12
BRANCH   4  15
ATOM     15  O   UNL     1       0.848   2.249   0.024  1.00  0.00    -0.389 OA
ATOM     16  H   UNL     1       0.101   2.873   0.129  1.00  0.00     0.211 HD
ENDBRANCH   4  15
TORSDOF 5
