REMARK SMILES OC[C@H]1NC[C@H](O)[C@@H](O)[C@@H]1O
REMARK SMILES IDX 5 1 6 2 8 3 10 4 3 5 4 6 7 8 9 10 2 12 1 13 11 15
REMARK H PARENT 4 7 7 9 9 11 1 14 11 16
ROOT
ATOM      1  C   UNL     1       0.729  -1.367   0.587  1.00  0.00     0.116 C 
ATOM      2  C   UNL     1       1.562  -0.654  -0.494  1.00  0.00     0.159 C 
ATOM      3  C   UNL     1       0.698   0.312  -1.327  1.00  0.00     0.174 C 
ATOM      4  C   UNL     1      -0.105   1.245  -0.403  1.00  0.00     0.165 C 
ATOM      5  C   UNL     1      -0.881   0.478   0.690  1.00  0.00     0.111 C 
ATOM      6  N   UNL     1      -0.003  -0.437   1.471  1.00  0.00    -0.307 NA
ATOM      7  H   UNL     1       0.703   0.139   1.940  1.00  0.00     0.123 HD
ENDROOT
BRANCH   2   8
ATOM      8  O   UNL     1       2.646   0.048   0.129  1.00  0.00    -0.389 OA
ATOM      9  H   UNL     1       2.298   0.924   0.401  1.00  0.00     0.211 HD
ENDBRANCH   2   8
BRANCH   3  10
ATOM     10  O   UNL     1      -0.177  -0.394  -2.205  1.00  0.00    -0.388 OA
ATOM     11  H   UNL     1       0.379  -0.845  -2.867  1.00  0.00     0.211 HD
ENDBRANCH   3  10
BRANCH   5  12
ATOM     12  C   UNL     1      -2.133  -0.255   0.172  1.00  0.00     0.177 C 
BRANCH  12  13
ATOM     13  O   UNL     1      -2.795  -0.877   1.277  1.00  0.00    -0.395 OA
ATOM     14  H   UNL     1      -2.069  -1.233   1.830  1.00  0.00     0.210 HD
ENDBRANCH  12  13
ENDBRANCH   5  12
BRANCH   4  15
ATOM     15  O   UNL     1       0.828   2.137   0.245  1.00  0.00    -0.389 OA
ATOM     16  H   UNL     1       0.297   2.816   0.703  1.00  0.00     0.211 HD
ENDBRANCH   4  15
TORSDOF 5
