REMARK SMILES C[C@H](C[C@H](O)[C@@H](O)C(C)(C)O)C1=C2C[C@H](O)[C@H]3[C@@]4(C)CCC(=O)C(C)(C)[C@@H]4CC[C@]3(C)[C@@]2(C)CC1=O
REMARK SMILES IDX 3 1 2 2 1 3 12 4 13 5 35 6 14 7 32 8 34 9 36 10 15 11 30 12
REMARK SMILES IDX 17 13 29 14 18 15 28 16 20 17 27 18 21 19 24 20 22 21 23 22
REMARK SMILES IDX 33 23 31 24 19 25 25 26 26 27 16 28 4 30 6 31 8 32 9 33
REMARK SMILES IDX 10 34 11 35 7 37 5 39
REMARK H PARENT 16 29 11 36 7 38 5 40
ROOT
ATOM      1  C   UNL     1       3.392  -1.261   1.446  1.00  0.00     0.042 C 
ENDROOT
BRANCH   1   2
ATOM      2  C   UNL     1       3.259  -1.960   0.078  1.00  0.00     0.022 C 
ATOM      3  C   UNL     1       3.204  -3.484   0.263  1.00  0.00     0.013 C 
BRANCH   2   4
ATOM      4  C   UNL     1       2.120  -1.459  -0.762  1.00  0.00    -0.002 C 
ATOM      5  C   UNL     1       0.790  -1.650  -0.750  1.00  0.00    -0.054 C 
ATOM      6  C   UNL     1       2.377  -0.566  -1.913  1.00  0.00     0.160 C 
ATOM      7  C   UNL     1      -0.021  -2.415   0.248  1.00  0.00     0.064 C 
ATOM      8  C   UNL     1       0.033  -1.008  -1.906  1.00  0.00     0.002 C 
ATOM      9  C   UNL     1       1.119  -0.173  -2.629  1.00  0.00     0.092 C 
ATOM     10  O   UNL     1       3.500  -0.177  -2.212  1.00  0.00    -0.295 OA
ATOM     11  C   UNL     1      -1.286  -1.678   0.734  1.00  0.00     0.122 C 
ATOM     12  C   UNL     1      -1.178  -0.135  -1.337  1.00  0.00    -0.017 C 
ATOM     13  C   UNL     1      -2.100  -1.023  -0.420  1.00  0.00     0.031 C 
ATOM     14  C   UNL     1      -2.060   0.355  -2.513  1.00  0.00     0.008 C 
ATOM     15  C   UNL     1      -3.535  -0.364  -0.035  1.00  0.00    -0.023 C 
ATOM     16  C   UNL     1      -3.311   1.149  -2.137  1.00  0.00     0.006 C 
ATOM     17  C   UNL     1      -3.743  -0.199   1.497  1.00  0.00     0.015 C 
ATOM     18  C   UNL     1      -3.715   1.073  -0.657  1.00  0.00     0.008 C 
ATOM     19  C   UNL     1      -5.052   0.476   1.893  1.00  0.00     0.077 C 
ATOM     20  C   UNL     1      -5.042   1.852  -0.321  1.00  0.00     0.027 C 
ATOM     21  C   UNL     1      -5.251   1.802   1.201  1.00  0.00     0.138 C 
ATOM     22  O   UNL     1      -5.657   2.773   1.843  1.00  0.00    -0.299 OA
ATOM     23  C   UNL     1      -0.392  -2.142  -2.876  1.00  0.00     0.017 C 
ATOM     24  C   UNL     1      -0.609   1.072  -0.530  1.00  0.00     0.013 C 
ATOM     25  C   UNL     1      -4.592  -1.367  -0.572  1.00  0.00     0.012 C 
ATOM     26  C   UNL     1      -6.322   1.344  -1.002  1.00  0.00     0.020 C 
ATOM     27  C   UNL     1      -4.881   3.341  -0.728  1.00  0.00     0.020 C 
BRANCH  11  28
ATOM     28  O   UNL     1      -2.097  -2.656   1.390  1.00  0.00    -0.392 OA
ATOM     29  H   UNL     1      -1.609  -2.963   2.174  1.00  0.00     0.210 HD
ENDBRANCH  11  28
ENDBRANCH   2   4
ENDBRANCH   1   2
BRANCH   1  30
ATOM     30  C   UNL     1       3.802   0.224   1.437  1.00  0.00     0.146 C 
BRANCH  30  31
ATOM     31  C   UNL     1       5.181   0.503   0.770  1.00  0.00     0.174 C 
BRANCH  31  32
ATOM     32  C   UNL     1       6.164   1.281   1.697  1.00  0.00     0.087 C 
ATOM     33  C   UNL     1       7.521   1.473   1.002  1.00  0.00     0.044 C 
ATOM     34  C   UNL     1       5.627   2.657   2.109  1.00  0.00     0.044 C 
BRANCH  32  35
ATOM     35  O   UNL     1       6.381   0.523   2.896  1.00  0.00    -0.388 OA
ATOM     36  H   UNL     1       7.029  -0.176   2.702  1.00  0.00     0.211 HD
ENDBRANCH  32  35
ENDBRANCH  31  32
BRANCH  31  37
ATOM     37  O   UNL     1       4.987   1.244  -0.443  1.00  0.00    -0.387 OA
ATOM     38  H   UNL     1       4.560   0.646  -1.099  1.00  0.00     0.211 HD
ENDBRANCH  31  37
ENDBRANCH  30  31
BRANCH  30  39
ATOM     39  O   UNL     1       2.776   1.005   0.818  1.00  0.00    -0.390 OA
ATOM     40  H   UNL     1       3.244   1.703   0.313  1.00  0.00     0.211 HD
ENDBRANCH  30  39
ENDBRANCH   1  30
TORSDOF 9
