REMARK SMILES C=Cc1ccc(OC)c(OC)c1
REMARK SMILES IDX 6 1 9 2 12 3 3 4 4 5 5 6 7 7 8 8 10 9 11 10 2 11 1 12
REMARK H PARENT
ROOT
ATOM      1  C   UNL     1      -0.898   1.004   0.061  1.00  0.00     0.160 A 
ATOM      2  C   UNL     1      -0.924  -0.364   0.395  1.00  0.00     0.161 A 
ATOM      3  C   UNL     1       0.185  -1.171   0.105  1.00  0.00     0.058 A 
ATOM      4  C   UNL     1       1.329  -0.632  -0.502  1.00  0.00    -0.022 A 
ATOM      5  C   UNL     1       1.337   0.724  -0.842  1.00  0.00     0.012 A 
ATOM      6  C   UNL     1       0.236   1.537  -0.559  1.00  0.00     0.051 A 
ENDROOT
BRANCH   1   7
ATOM      7  O   UNL     1      -2.022   1.725   0.376  1.00  0.00    -0.493 OA
ATOM      8  C   UNL     1      -2.024   3.111   0.067  1.00  0.00     0.278 C 
ENDBRANCH   1   7
BRANCH   2   9
ATOM      9  O   UNL     1      -2.075  -0.815   0.995  1.00  0.00    -0.493 OA
ATOM     10  C   UNL     1      -2.129  -2.181   1.379  1.00  0.00     0.278 C 
ENDBRANCH   2   9
BRANCH   4  11
ATOM     11  C   UNL     1       2.455  -1.524  -0.814  1.00  0.00     0.000 C 
ATOM     12  C   UNL     1       3.744  -1.165  -0.756  1.00  0.00     0.009 C 
ENDBRANCH   4  11
TORSDOF 3
