REMARK SMILES C=Cc1ccc(OC)c(OC)c1
REMARK SMILES IDX 6 1 9 2 12 3 3 4 4 5 5 6 7 7 8 8 10 9 11 10 2 11 1 12
REMARK H PARENT
ROOT
ATOM      1  C   UNL     1      -1.115  -0.757   0.062  1.00  0.00     0.160 A 
ATOM      2  C   UNL     1      -0.859   0.623  -0.063  1.00  0.00     0.161 A 
ATOM      3  C   UNL     1       0.449   1.102   0.092  1.00  0.00     0.058 A 
ATOM      4  C   UNL     1       1.511   0.225   0.358  1.00  0.00    -0.022 A 
ATOM      5  C   UNL     1       1.242  -1.140   0.493  1.00  0.00     0.012 A 
ATOM      6  C   UNL     1      -0.060  -1.629   0.343  1.00  0.00     0.051 A 
ENDROOT
BRANCH   1   7
ATOM      7  O   UNL     1      -2.422  -1.147  -0.102  1.00  0.00    -0.493 OA
ATOM      8  C   UNL     1      -2.714  -2.532   0.003  1.00  0.00     0.278 C 
ENDBRANCH   1   7
BRANCH   2   9
ATOM      9  O   UNL     1      -1.949   1.415  -0.332  1.00  0.00    -0.493 OA
ATOM     10  C   UNL     1      -1.728   2.807  -0.501  1.00  0.00     0.278 C 
ENDBRANCH   2   9
BRANCH   4  11
ATOM     11  C   UNL     1       2.860   0.778   0.541  1.00  0.00     0.000 C 
ATOM     12  C   UNL     1       3.988   0.167   0.158  1.00  0.00     0.009 C 
ENDBRANCH   4  11
TORSDOF 3
