REMARK SMILES C=Cc1ccc(OC)c(OC)c1
REMARK SMILES IDX 6 1 9 2 12 3 3 4 4 5 5 6 7 7 8 8 10 9 11 10 2 11 1 12
REMARK H PARENT
ROOT
ATOM      1  C   UNL     1      -1.136   0.831  -0.031  1.00  0.00     0.160 A 
ATOM      2  C   UNL     1      -0.731  -0.486   0.266  1.00  0.00     0.161 A 
ATOM      3  C   UNL     1       0.593  -0.876   0.023  1.00  0.00     0.058 A 
ATOM      4  C   UNL     1       1.525   0.029  -0.502  1.00  0.00    -0.022 A 
ATOM      5  C   UNL     1       1.107   1.327  -0.809  1.00  0.00     0.012 A 
ATOM      6  C   UNL     1      -0.211   1.728  -0.571  1.00  0.00     0.051 A 
ENDROOT
BRANCH   1   7
ATOM      7  O   UNL     1      -2.448   1.135   0.236  1.00  0.00    -0.493 OA
ATOM      8  C   UNL     1      -2.887   2.457  -0.038  1.00  0.00     0.278 C 
ENDBRANCH   1   7
BRANCH   2   9
ATOM      9  O   UNL     1      -1.701  -1.311   0.783  1.00  0.00    -0.493 OA
ATOM     10  C   UNL     1      -1.330  -2.641   1.111  1.00  0.00     0.278 C 
ENDBRANCH   2   9
BRANCH   4  11
ATOM     11  C   UNL     1       2.913  -0.355  -0.796  1.00  0.00     0.000 C 
ATOM     12  C   UNL     1       3.644  -1.185  -0.042  1.00  0.00     0.009 C 
ENDBRANCH   4  11
TORSDOF 3
