REMARK SMILES COc1cc(-c2coc3cc(O)ccc3c2=O)ccc1O
REMARK SMILES IDX 6 1 7 2 8 3 9 4 15 5 16 6 17 7 14 8 13 9 11 10 10 11 5 12
REMARK SMILES IDX 3 13 20 14 4 15 19 16 18 17 2 18 1 19 21 20 12 22
REMARK H PARENT 21 21 12 23
ROOT
ATOM      1  C   UNL     1       0.159   0.055   0.352  1.00  0.00     0.065 C 
ATOM      2  C   UNL     1       0.517  -1.168   0.774  1.00  0.00     0.208 C 
ATOM      3  O   UNL     1       1.787  -1.691   0.806  1.00  0.00    -0.463 OA
ATOM      4  C   UNL     1       2.816  -0.891   0.377  1.00  0.00     0.141 A 
ATOM      5  C   UNL     1       2.617   0.410  -0.083  1.00  0.00     0.066 A 
ATOM      6  C   UNL     1       1.249   0.958  -0.115  1.00  0.00     0.200 C 
ATOM      7  O   UNL     1       1.040   2.098  -0.513  1.00  0.00    -0.288 OA
ATOM      8  C   UNL     1       3.704   1.180  -0.508  1.00  0.00     0.020 A 
ATOM      9  C   UNL     1       4.990   0.639  -0.468  1.00  0.00     0.047 A 
ATOM     10  C   UNL     1       5.178  -0.661  -0.007  1.00  0.00     0.119 A 
ATOM     11  C   UNL     1       4.101  -1.434   0.418  1.00  0.00     0.094 A 
ENDROOT
BRANCH   1  12
ATOM     12  C   UNL     1      -1.253   0.479   0.393  1.00  0.00    -0.007 A 
ATOM     13  C   UNL     1      -3.591   0.107  -0.180  1.00  0.00     0.161 A 
ATOM     14  C   UNL     1      -3.919   1.280   0.507  1.00  0.00     0.157 A 
ATOM     15  C   UNL     1      -2.253  -0.291  -0.233  1.00  0.00     0.059 A 
ATOM     16  C   UNL     1      -2.949   2.058   1.122  1.00  0.00     0.051 A 
ATOM     17  C   UNL     1      -1.614   1.658   1.062  1.00  0.00     0.013 A 
BRANCH  13  18
ATOM     18  O   UNL     1      -4.655  -0.550  -0.743  1.00  0.00    -0.493 OA
ATOM     19  C   UNL     1      -4.356  -1.708  -1.514  1.00  0.00     0.278 C 
ENDBRANCH  13  18
BRANCH  14  20
ATOM     20  O   UNL     1      -5.222   1.693   0.582  1.00  0.00    -0.504 OA
ATOM     21  H   UNL     1      -5.727   1.026   0.078  1.00  0.00     0.293 HD
ENDBRANCH  14  20
ENDBRANCH   1  12
BRANCH  10  22
ATOM     22  O   UNL     1       6.452  -1.145   0.014  1.00  0.00    -0.508 OA
ATOM     23  H   UNL     1       6.443  -2.053   0.361  1.00  0.00     0.293 HD
ENDBRANCH  10  22
TORSDOF 4
