REMARK SMILES COc1cc(-c2coc3cc(O)ccc3c2=O)ccc1O
REMARK SMILES IDX 6 1 7 2 8 3 9 4 15 5 16 6 17 7 14 8 13 9 11 10 10 11 5 12
REMARK SMILES IDX 3 13 20 14 4 15 19 16 18 17 2 18 1 19 21 20 12 22
REMARK H PARENT 21 21 12 23
ROOT
ATOM      1  C   UNL     1       0.189  -0.650   0.349  1.00  0.00     0.065 C 
ATOM      2  C   UNL     1       0.794  -1.114   1.454  1.00  0.00     0.208 C 
ATOM      3  O   UNL     1       2.082  -0.860   1.862  1.00  0.00    -0.463 OA
ATOM      4  C   UNL     1       2.853  -0.051   1.068  1.00  0.00     0.141 A 
ATOM      5  C   UNL     1       2.377   0.525  -0.107  1.00  0.00     0.066 A 
ATOM      6  C   UNL     1       0.988   0.260  -0.523  1.00  0.00     0.200 C 
ATOM      7  O   UNL     1       0.534   0.777  -1.538  1.00  0.00    -0.288 OA
ATOM      8  C   UNL     1       3.209   1.345  -0.878  1.00  0.00     0.020 A 
ATOM      9  C   UNL     1       4.522   1.585  -0.466  1.00  0.00     0.047 A 
ATOM     10  C   UNL     1       4.986   1.003   0.711  1.00  0.00     0.119 A 
ATOM     11  C   UNL     1       4.163   0.188   1.482  1.00  0.00     0.094 A 
ENDROOT
BRANCH   1  12
ATOM     12  C   UNL     1      -1.213  -1.007   0.049  1.00  0.00    -0.007 A 
ATOM     13  C   UNL     1      -3.466  -0.341  -0.599  1.00  0.00     0.161 A 
ATOM     14  C   UNL     1      -3.863  -1.678  -0.508  1.00  0.00     0.157 A 
ATOM     15  C   UNL     1      -2.139  -0.012  -0.313  1.00  0.00     0.059 A 
ATOM     16  C   UNL     1      -2.968  -2.680  -0.159  1.00  0.00     0.051 A 
ATOM     17  C   UNL     1      -1.642  -2.344   0.114  1.00  0.00     0.013 A 
BRANCH  13  18
ATOM     18  O   UNL     1      -4.456   0.534  -0.965  1.00  0.00    -0.493 OA
ATOM     19  C   UNL     1      -4.052   1.875  -1.222  1.00  0.00     0.278 C 
ENDBRANCH  13  18
BRANCH  14  20
ATOM     20  O   UNL     1      -5.158  -2.032  -0.773  1.00  0.00    -0.504 OA
ATOM     21  H   UNL     1      -5.603  -1.194  -1.005  1.00  0.00     0.293 HD
ENDBRANCH  14  20
ENDBRANCH   1  12
BRANCH  10  22
ATOM     22  O   UNL     1       6.260   1.211   1.150  1.00  0.00    -0.508 OA
ATOM     23  H   UNL     1       6.721   1.790   0.520  1.00  0.00     0.293 HD
ENDBRANCH  10  22
TORSDOF 4
