REMARK SMILES COc1cc(-c2coc3cc(O)ccc3c2=O)ccc1O
REMARK SMILES IDX 6 1 7 2 8 3 9 4 15 5 16 6 17 7 14 8 13 9 11 10 10 11 5 12
REMARK SMILES IDX 3 13 20 14 4 15 19 16 18 17 2 18 1 19 21 20 12 22
REMARK H PARENT 21 21 12 23
ROOT
ATOM      1  C   UNL     1       0.198  -0.658  -0.188  1.00  0.00     0.065 C 
ATOM      2  C   UNL     1       0.900  -1.268  -1.157  1.00  0.00     0.208 C 
ATOM      3  O   UNL     1       2.232  -1.098  -1.445  1.00  0.00    -0.463 OA
ATOM      4  C   UNL     1       2.942  -0.213  -0.676  1.00  0.00     0.141 A 
ATOM      5  C   UNL     1       2.365   0.513   0.363  1.00  0.00     0.066 A 
ATOM      6  C   UNL     1       0.932   0.329   0.656  1.00  0.00     0.200 C 
ATOM      7  O   UNL     1       0.394   0.966   1.553  1.00  0.00    -0.288 OA
ATOM      8  C   UNL     1       3.139   1.405   1.116  1.00  0.00     0.020 A 
ATOM      9  C   UNL     1       4.495   1.566   0.823  1.00  0.00     0.047 A 
ATOM     10  C   UNL     1       5.060   0.834  -0.218  1.00  0.00     0.119 A 
ATOM     11  C   UNL     1       4.296  -0.054  -0.970  1.00  0.00     0.094 A 
ENDROOT
BRANCH   1  12
ATOM     12  C   UNL     1      -1.240  -0.939  -0.008  1.00  0.00    -0.007 A 
ATOM     13  C   UNL     1      -3.530  -0.134   0.257  1.00  0.00     0.161 A 
ATOM     14  C   UNL     1      -3.972  -1.462   0.312  1.00  0.00     0.157 A 
ATOM     15  C   UNL     1      -2.163   0.116   0.090  1.00  0.00     0.059 A 
ATOM     16  C   UNL     1      -3.072  -2.522   0.224  1.00  0.00     0.051 A 
ATOM     17  C   UNL     1      -1.710  -2.259   0.069  1.00  0.00     0.013 A 
BRANCH  13  18
ATOM     18  O   UNL     1      -4.496   0.834   0.356  1.00  0.00    -0.493 OA
ATOM     19  C   UNL     1      -4.055   2.167   0.572  1.00  0.00     0.278 C 
ENDBRANCH  13  18
BRANCH  14  20
ATOM     20  O   UNL     1      -5.309  -1.717   0.463  1.00  0.00    -0.504 OA
ATOM     21  H   UNL     1      -5.448  -2.674   0.514  1.00  0.00     0.293 HD
ENDBRANCH  14  20
ENDBRANCH   1  12
BRANCH  10  22
ATOM     22  O   UNL     1       6.379   0.960  -0.538  1.00  0.00    -0.508 OA
ATOM     23  H   UNL     1       6.789   1.607   0.061  1.00  0.00     0.293 HD
ENDBRANCH  10  22
TORSDOF 4
