REMARK SMILES C=C1CCC(C(C)C)=C[C@H]2[C@@H]1CC[C@@]2(C)O
REMARK SMILES IDX 10 1 11 2 12 3 13 4 14 5 15 6 9 7 5 8 6 9 7 10 8 11 4 12
REMARK SMILES IDX 2 14 1 15 3 16 16 18
REMARK H PARENT 16 19
REMARK Flexibility Score:    4.900
ROOT
ATOM      1  C   UNL     1      -0.879  -0.651   0.437  1.00  0.00     0.050 C 
ATOM      2  C   UNL     1      -1.616   0.573   1.077  1.00  0.00     0.024 C 
ATOM      3  C   UNL     1      -2.861   0.802   0.206  1.00  0.00     0.012 C 
ATOM      4  C   UNL     1      -3.241  -0.604  -0.232  1.00  0.00     0.036 C 
ATOM      5  C   UNL     1      -1.891  -1.196  -0.636  1.00  0.00     0.069 C 
ATOM      6  C   UNL     1      -1.927  -2.720  -0.708  1.00  0.00     0.042 C 
ENDROOT
BRANCH   1   7
ATOM      7  C   UNL     1       0.538  -0.563  -0.099  1.00  0.00    -0.021 C 
ATOM      8  C   UNL     1       1.589   0.229   0.197  1.00  0.00    -0.071 C 
BRANCH   8   9
ATOM      9  C   UNL     1       2.915   0.091  -0.568  1.00  0.00     0.008 C 
ATOM     10  C   UNL     1       2.759  -0.084  -2.084  1.00  0.00     0.012 C 
ATOM     11  C   UNL     1       3.762  -1.042   0.017  1.00  0.00     0.012 C 
ENDBRANCH   8   9
BRANCH   8  12
ATOM     12  C   UNL     1       1.650   1.305   1.263  1.00  0.00     0.035 CG0
ATOM     13  G   UNL     1       0.461   1.480   2.200  1.00  0.00     0.000 G0
ENDBRANCH   8  12
ENDBRANCH   1   7
BRANCH   2  14
ATOM     14  C   UNL     1      -0.804   1.789   1.445  1.00  0.00    -0.073 C 
ATOM     15  C   UNL     1      -1.158   3.061   1.191  1.00  0.00     0.008 C 
BRANCH  14  16
ATOM     16  C   UNL     1       0.461   1.480   2.200  1.00  0.00     0.035 CG0
ATOM     17  G   UNL     1       1.650   1.305   1.263  1.00  0.00     0.000 G0
ENDBRANCH  14  16
ENDBRANCH   2  14
BRANCH   5  18
ATOM     18  O   UNL     1      -1.567  -0.699  -1.942  1.00  0.00    -0.390 OA
ATOM     19  H   UNL     1      -2.251  -1.005  -2.562  1.00  0.00     0.211 HD
ENDBRANCH   5  18
TORSDOF 2
