REMARK SMILES C[C@H](C[C@H](O)[C@@H](O)C(C)(C)O)C1=C2C[C@H](O)[C@H]3[C@@]4(C)CCC(=O)C(C)(C)[C@@H]4CC[C@]3(C)[C@@]2(C)CC1
REMARK SMILES IDX 3 1 2 2 1 3 12 4 13 5 35 6 14 7 32 8 34 9 15 10 30 11 17 12
REMARK SMILES IDX 29 13 18 14 28 15 20 16 27 17 21 18 24 19 22 20 23 21 33 22
REMARK SMILES IDX 31 23 19 24 25 25 26 26 16 27 4 29 6 30 8 31 9 32 10 33
REMARK SMILES IDX 11 34 7 36 5 38
REMARK H PARENT 16 28 11 35 7 37 5 39
ROOT
ATOM      1  C   UNL     1       4.119  -0.784  -1.304  1.00  0.00     0.042 C 
ENDROOT
BRANCH   1   2
ATOM      2  C   UNL     1       3.047   0.231  -0.841  1.00  0.00     0.014 C 
ATOM      3  C   UNL     1       3.378   1.665  -1.270  1.00  0.00     0.012 C 
BRANCH   2   4
ATOM      4  C   UNL     1       1.682  -0.151  -1.378  1.00  0.00    -0.067 C 
ATOM      5  C   UNL     1       0.582  -0.480  -0.677  1.00  0.00    -0.062 C 
ATOM      6  C   UNL     1       1.436  -0.266  -2.856  1.00  0.00     0.032 C 
ATOM      7  C   UNL     1       0.393  -0.566   0.804  1.00  0.00     0.063 C 
ATOM      8  C   UNL     1      -0.593  -0.837  -1.566  1.00  0.00    -0.005 C 
ATOM      9  C   UNL     1      -0.079  -0.435  -2.973  1.00  0.00     0.016 C 
ATOM     10  C   UNL     1      -0.935   0.034   1.308  1.00  0.00     0.122 C 
ATOM     11  C   UNL     1      -1.891  -0.025  -1.095  1.00  0.00    -0.018 C 
ATOM     12  C   UNL     1      -2.172  -0.341   0.431  1.00  0.00     0.031 C 
ATOM     13  C   UNL     1      -3.110  -0.416  -1.990  1.00  0.00     0.008 C 
ATOM     14  C   UNL     1      -3.600   0.139   1.011  1.00  0.00    -0.023 C 
ATOM     15  C   UNL     1      -4.462  -0.529  -1.278  1.00  0.00     0.006 C 
ATOM     16  C   UNL     1      -3.536   1.393   1.919  1.00  0.00     0.015 C 
ATOM     17  C   UNL     1      -4.577   0.510  -0.162  1.00  0.00     0.008 C 
ATOM     18  C   UNL     1      -4.902   1.854   2.425  1.00  0.00     0.077 C 
ATOM     19  C   UNL     1      -6.029   0.940   0.229  1.00  0.00     0.027 C 
ATOM     20  C   UNL     1      -5.945   2.007   1.339  1.00  0.00     0.138 C 
ATOM     21  O   UNL     1      -6.772   2.920   1.423  1.00  0.00    -0.299 OA
ATOM     22  C   UNL     1      -0.739  -2.382  -1.533  1.00  0.00     0.017 C 
ATOM     23  C   UNL     1      -1.626   1.513  -1.256  1.00  0.00     0.013 C 
ATOM     24  C   UNL     1      -4.119  -1.055   1.867  1.00  0.00     0.012 C 
ATOM     25  C   UNL     1      -6.957  -0.194   0.685  1.00  0.00     0.020 C 
ATOM     26  C   UNL     1      -6.705   1.614  -0.998  1.00  0.00     0.020 C 
BRANCH  10  27
ATOM     27  O   UNL     1      -1.118  -0.405   2.657  1.00  0.00    -0.392 OA
ATOM     28  H   UNL     1      -1.105  -1.378   2.661  1.00  0.00     0.210 HD
ENDBRANCH  10  27
ENDBRANCH   2   4
ENDBRANCH   1   2
BRANCH   1  29
ATOM     29  C   UNL     1       5.232  -1.121  -0.291  1.00  0.00     0.146 C 
BRANCH  29  30
ATOM     30  C   UNL     1       6.136   0.070   0.103  1.00  0.00     0.174 C 
BRANCH  30  31
ATOM     31  C   UNL     1       7.565  -0.346   0.567  1.00  0.00     0.087 C 
ATOM     32  C   UNL     1       7.562  -1.339   1.733  1.00  0.00     0.044 C 
ATOM     33  C   UNL     1       8.380   0.891   0.973  1.00  0.00     0.044 C 
BRANCH  31  34
ATOM     34  O   UNL     1       8.245  -0.982  -0.528  1.00  0.00    -0.388 OA
ATOM     35  H   UNL     1       8.527  -0.288  -1.149  1.00  0.00     0.211 HD
ENDBRANCH  31  34
ENDBRANCH  30  31
BRANCH  30  36
ATOM     36  O   UNL     1       5.487   0.828   1.132  1.00  0.00    -0.387 OA
ATOM     37  H   UNL     1       5.010   0.159   1.667  1.00  0.00     0.211 HD
ENDBRANCH  30  36
ENDBRANCH  29  30
BRANCH  29  38
ATOM     38  O   UNL     1       4.628  -1.648   0.904  1.00  0.00    -0.390 OA
ATOM     39  H   UNL     1       4.116  -2.434   0.640  1.00  0.00     0.211 HD
ENDBRANCH  29  38
ENDBRANCH   1  29
TORSDOF 9
