REMARK SMILES C=C1CCC(C(C)C)=C[C@H]2[C@@H]1CC[C@@]2(C)O
REMARK SMILES IDX 10 1 11 2 12 3 13 4 14 5 15 6 9 7 5 8 6 9 7 10 8 11 4 12
REMARK SMILES IDX 2 14 1 15 3 16 16 18
REMARK H PARENT 16 19
REMARK Flexibility Score:    4.900
ROOT
ATOM      1  C   UNL     1      -1.108   0.433  -0.798  1.00  0.00     0.050 C 
ATOM      2  C   UNL     1      -1.661  -1.022  -0.707  1.00  0.00     0.024 C 
ATOM      3  C   UNL     1      -2.937  -0.924   0.156  1.00  0.00     0.012 C 
ATOM      4  C   UNL     1      -3.327   0.549   0.133  1.00  0.00     0.036 C 
ATOM      5  C   UNL     1      -1.977   1.265   0.188  1.00  0.00     0.069 C 
ATOM      6  C   UNL     1      -2.090   2.741  -0.184  1.00  0.00     0.042 C 
ENDROOT
BRANCH   1   7
ATOM      7  C   UNL     1       0.366   0.767  -0.768  1.00  0.00    -0.021 C 
ATOM      8  C   UNL     1       1.454   0.123  -0.297  1.00  0.00    -0.071 C 
BRANCH   8   9
ATOM      9  C   UNL     1       2.826   0.790  -0.491  1.00  0.00     0.008 C 
ATOM     10  C   UNL     1       3.396   1.321   0.828  1.00  0.00     0.012 C 
ATOM     11  C   UNL     1       3.836  -0.125  -1.190  1.00  0.00     0.012 C 
ENDBRANCH   8   9
BRANCH   8  12
ATOM     12  C   UNL     1       1.478  -1.204   0.435  1.00  0.00     0.035 CG0
ATOM     13  G   UNL     1       0.159  -1.804   0.914  1.00  0.00     0.000 G0
ENDBRANCH   8  12
ENDBRANCH   1   7
BRANCH   2  14
ATOM     14  C   UNL     1      -0.759  -2.128  -0.229  1.00  0.00    -0.073 C 
ATOM     15  C   UNL     1      -0.786  -3.353  -0.784  1.00  0.00     0.008 C 
BRANCH  14  16
ATOM     16  C   UNL     1       0.159  -1.804   0.914  1.00  0.00     0.035 CG0
ATOM     17  G   UNL     1       1.478  -1.204   0.435  1.00  0.00     0.000 G0
ENDBRANCH  14  16
ENDBRANCH   2  14
BRANCH   5  18
ATOM     18  O   UNL     1      -1.467   1.175   1.521  1.00  0.00    -0.390 OA
ATOM     19  H   UNL     1      -2.057   1.678   2.106  1.00  0.00     0.211 HD
ENDBRANCH   5  18
TORSDOF 2
