REMARK SMILES C[C@H](C[C@H](O)[C@H]1OC1(C)C)C1=C2C[C@H](O)[C@H]3[C@@]4(C)CCC(=O)C(C)(C)[C@@H]4CC[C@]3(C)[C@@]2(C)CC1
REMARK SMILES IDX 1 1 2 2 3 3 4 4 6 5 8 6 7 7 9 8 10 9 5 10 11 12 12 13 34 14
REMARK SMILES IDX 13 15 31 16 33 17 14 18 29 19 16 20 28 21 17 22 27 23 19 24
REMARK SMILES IDX 26 25 20 26 23 27 21 28 22 29 32 30 30 31 18 32 24 33 25 34
REMARK SMILES IDX 15 35
REMARK H PARENT 5 11 15 36
ROOT
ATOM      1  C   UNL     1       3.883  -2.872   0.458  1.00  0.00     0.012 C 
ATOM      2  C   UNL     1       3.422  -1.910  -0.640  1.00  0.00     0.014 C 
ENDROOT
BRANCH   2   3
ATOM      3  C   UNL     1       3.660  -0.416  -0.326  1.00  0.00     0.042 C 
BRANCH   3   4
ATOM      4  C   UNL     1       5.135  -0.034  -0.140  1.00  0.00     0.147 C 
BRANCH   4   5
ATOM      5  C   UNL     1       5.399   1.449  -0.201  1.00  0.00     0.179 C 
ATOM      6  C   UNL     1       5.198   2.426   0.959  1.00  0.00     0.092 C 
ATOM      7  O   UNL     1       4.252   2.313  -0.110  1.00  0.00    -0.364 OA
ATOM      8  C   UNL     1       4.652   2.003   2.287  1.00  0.00     0.045 C 
ATOM      9  C   UNL     1       5.968   3.712   0.946  1.00  0.00     0.045 C 
ENDBRANCH   4   5
BRANCH   4  10
ATOM     10  O   UNL     1       5.636  -0.553   1.089  1.00  0.00    -0.390 OA
ATOM     11  H   UNL     1       6.576  -0.311   1.144  1.00  0.00     0.211 HD
ENDBRANCH   4  10
ENDBRANCH   3   4
ENDBRANCH   2   3
BRANCH   2  12
ATOM     12  C   UNL     1       1.976  -2.148  -1.023  1.00  0.00    -0.067 C 
ATOM     13  C   UNL     1       0.860  -2.097  -0.277  1.00  0.00    -0.062 C 
ATOM     14  C   UNL     1       1.654  -2.394  -2.467  1.00  0.00     0.032 C 
ATOM     15  C   UNL     1       0.682  -1.731   1.161  1.00  0.00     0.063 C 
ATOM     16  C   UNL     1      -0.404  -2.333  -1.081  1.00  0.00    -0.005 C 
ATOM     17  C   UNL     1       0.151  -2.670  -2.490  1.00  0.00     0.016 C 
ATOM     18  C   UNL     1      -0.252  -0.516   1.321  1.00  0.00     0.122 C 
ATOM     19  C   UNL     1      -1.297  -1.006  -1.012  1.00  0.00    -0.018 C 
ATOM     20  C   UNL     1      -1.586  -0.657   0.510  1.00  0.00     0.031 C 
ATOM     21  C   UNL     1      -2.627  -1.216  -1.806  1.00  0.00     0.008 C 
ATOM     22  C   UNL     1      -2.673   0.492   0.771  1.00  0.00    -0.023 C 
ATOM     23  C   UNL     1      -3.888  -0.630  -1.166  1.00  0.00     0.006 C 
ATOM     24  C   UNL     1      -2.055   1.875   1.114  1.00  0.00     0.015 C 
ATOM     25  C   UNL     1      -3.591   0.703  -0.485  1.00  0.00     0.008 C 
ATOM     26  C   UNL     1      -2.977   3.077   0.875  1.00  0.00     0.077 C 
ATOM     27  C   UNL     1      -4.829   1.630  -0.252  1.00  0.00     0.027 C 
ATOM     28  C   UNL     1      -4.447   2.722   0.760  1.00  0.00     0.138 C 
ATOM     29  O   UNL     1      -5.295   3.356   1.389  1.00  0.00    -0.299 OA
ATOM     30  C   UNL     1      -1.105  -3.608  -0.543  1.00  0.00     0.017 C 
ATOM     31  C   UNL     1      -0.521   0.178  -1.683  1.00  0.00     0.013 C 
ATOM     32  C   UNL     1      -3.502   0.031   2.010  1.00  0.00     0.012 C 
ATOM     33  C   UNL     1      -5.184   2.364  -1.565  1.00  0.00     0.020 C 
ATOM     34  C   UNL     1      -6.098   0.891   0.212  1.00  0.00     0.020 C 
BRANCH  18  35
ATOM     35  O   UNL     1      -0.523  -0.354   2.712  1.00  0.00    -0.392 OA
ATOM     36  H   UNL     1       0.330  -0.224   3.162  1.00  0.00     0.210 HD
ENDBRANCH  18  35
ENDBRANCH   2  12
TORSDOF 6
