REMARK SMILES CC(C)C1=C[C@H]2[C@@H](CC[C@]2(C)O)[C@](C)(O)CC1
REMARK SMILES IDX 6 1 7 2 8 3 9 4 10 5 11 6 5 7 4 8 2 9 1 10 3 11 17 12 13 14
REMARK SMILES IDX 14 15 16 16 15 18 12 20
REMARK H PARENT 15 19 12 21
REMARK Flexibility Score:    4.900
ROOT
ATOM      1  C   UNL     1      -0.749  -0.342   0.790  1.00  0.00     0.049 C 
ATOM      2  C   UNL     1      -1.385   0.476  -0.353  1.00  0.00     0.030 C 
ATOM      3  C   UNL     1      -2.913   0.304  -0.173  1.00  0.00     0.010 C 
ATOM      4  C   UNL     1      -3.100  -0.721   0.941  1.00  0.00     0.036 C 
ATOM      5  C   UNL     1      -1.778  -1.489   1.005  1.00  0.00     0.069 C 
ATOM      6  C   UNL     1      -1.741  -2.619  -0.031  1.00  0.00     0.042 C 
ENDROOT
BRANCH   1   7
ATOM      7  C   UNL     1       0.669  -0.786   0.528  1.00  0.00    -0.021 C 
ATOM      8  C   UNL     1       1.712   0.009   0.214  1.00  0.00    -0.071 C 
BRANCH   8   9
ATOM      9  C   UNL     1       3.131  -0.524  -0.013  1.00  0.00     0.008 C 
ATOM     10  C   UNL     1       3.421  -1.920   0.555  1.00  0.00     0.012 C 
ATOM     11  C   UNL     1       3.470  -0.505  -1.508  1.00  0.00     0.012 C 
ENDBRANCH   8   9
BRANCH   8  12
ATOM     12  C   UNL     1       1.582   1.517   0.130  1.00  0.00     0.034 CG0
ATOM     13  G   UNL     1       0.566   2.035  -0.888  1.00  0.00     0.000 G0
ENDBRANCH   8  12
ENDBRANCH   1   7
BRANCH   2  14
ATOM     14  C   UNL     1      -0.919   1.941  -0.484  1.00  0.00     0.066 C 
ATOM     15  C   UNL     1      -1.218   2.808   0.748  1.00  0.00     0.042 C 
BRANCH  14  16
ATOM     16  C   UNL     1       0.566   2.035  -0.888  1.00  0.00     0.039 CG0
ATOM     17  G   UNL     1       1.582   1.517   0.130  1.00  0.00     0.000 G0
ENDBRANCH  14  16
BRANCH  14  18
ATOM     18  O   UNL     1      -1.673   2.505  -1.576  1.00  0.00    -0.390 OA
ATOM     19  H   UNL     1      -1.393   3.429  -1.690  1.00  0.00     0.211 HD
ENDBRANCH  14  18
ENDBRANCH   2  14
BRANCH   5  20
ATOM     20  O   UNL     1      -1.619  -2.058   2.302  1.00  0.00    -0.390 OA
ATOM     21  H   UNL     1      -2.349  -2.685   2.443  1.00  0.00     0.211 HD
ENDBRANCH   5  20
TORSDOF 3
