REMARK SMILES COc1cc(-c2cc(=O)c3c(O)c(OC)c(OC)cc3o2)c(O)cc1O
REMARK SMILES IDX 6 1 7 2 8 3 9 4 10 5 11 6 13 7 16 8 19 9 20 10 21 11 5 12
REMARK SMILES IDX 3 13 25 14 4 15 24 16 22 17 2 18 1 19 26 20 23 22 12 24
REMARK SMILES IDX 17 26 18 27 14 28 15 29
REMARK H PARENT 26 21 23 23 12 25
ROOT
ATOM      1  C   UNL     1      -0.986  -1.064  -0.207  1.00  0.00     0.142 C 
ATOM      2  C   UNL     1      -0.775  -1.465  -1.469  1.00  0.00     0.100 C 
ATOM      3  C   UNL     1       0.403  -0.963  -2.188  1.00  0.00     0.197 C 
ATOM      4  O   UNL     1       0.641  -1.290  -3.345  1.00  0.00    -0.289 OA
ATOM      5  C   UNL     1       1.289  -0.042  -1.463  1.00  0.00     0.111 A 
ATOM      6  C   UNL     1       2.450   0.477  -2.049  1.00  0.00     0.176 A 
ATOM      7  C   UNL     1       3.270   1.350  -1.316  1.00  0.00     0.204 A 
ATOM      8  C   UNL     1       2.898   1.739  -0.020  1.00  0.00     0.168 A 
ATOM      9  C   UNL     1       1.750   1.190   0.561  1.00  0.00     0.098 A 
ATOM     10  C   UNL     1       0.947   0.307  -0.160  1.00  0.00     0.146 A 
ATOM     11  O   UNL     1      -0.173  -0.172   0.474  1.00  0.00    -0.455 OA
ENDROOT
BRANCH   1  12
ATOM     12  C   UNL     1      -2.158  -1.522   0.567  1.00  0.00     0.063 A 
ATOM     13  C   UNL     1      -4.067  -0.935   1.968  1.00  0.00     0.161 A 
ATOM     14  C   UNL     1      -4.380  -2.294   2.067  1.00  0.00     0.161 A 
ATOM     15  C   UNL     1      -2.953  -0.555   1.217  1.00  0.00     0.066 A 
ATOM     16  C   UNL     1      -3.612  -3.270   1.446  1.00  0.00     0.097 A 
ATOM     17  C   UNL     1      -2.501  -2.879   0.701  1.00  0.00     0.130 A 
BRANCH  13  18
ATOM     18  O   UNL     1      -4.917  -0.095   2.640  1.00  0.00    -0.493 OA
ATOM     19  C   UNL     1      -4.621   1.296   2.580  1.00  0.00     0.278 C 
ENDBRANCH  13  18
BRANCH  14  20
ATOM     20  O   UNL     1      -5.467  -2.698   2.795  1.00  0.00    -0.504 OA
ATOM     21  H   UNL     1      -5.860  -1.874   3.144  1.00  0.00     0.293 HD
ENDBRANCH  14  20
BRANCH  17  22
ATOM     22  O   UNL     1      -1.727  -3.838   0.103  1.00  0.00    -0.507 OA
ATOM     23  H   UNL     1      -2.070  -4.716   0.342  1.00  0.00     0.293 HD
ENDBRANCH  17  22
ENDBRANCH   1  12
BRANCH   6  24
ATOM     24  O   UNL     1       2.819   0.154  -3.332  1.00  0.00    -0.504 OA
ATOM     25  H   UNL     1       2.136  -0.442  -3.714  1.00  0.00     0.293 HD
ENDBRANCH   6  24
BRANCH   8  26
ATOM     26  O   UNL     1       3.590   2.592   0.799  1.00  0.00    -0.493 OA
ATOM     27  C   UNL     1       4.164   3.726   0.155  1.00  0.00     0.278 C 
ENDBRANCH   8  26
BRANCH   7  28
ATOM     28  O   UNL     1       4.415   1.847  -1.887  1.00  0.00    -0.490 OA
ATOM     29  C   UNL     1       5.465   0.882  -1.808  1.00  0.00     0.278 C 
ENDBRANCH   7  28
TORSDOF 7
