REMARK SMILES COc1cc(-c2cc(=O)c3c(O)c(OC)c(OC)cc3o2)c(O)cc1O
REMARK SMILES IDX 6 1 7 2 8 3 9 4 10 5 11 6 13 7 16 8 19 9 20 10 21 11 5 12
REMARK SMILES IDX 3 13 25 14 4 15 24 16 22 17 2 18 1 19 26 20 23 22 12 24
REMARK SMILES IDX 17 26 18 27 14 28 15 29
REMARK H PARENT 26 21 23 23 12 25
ROOT
ATOM      1  C   UNL     1       0.907   0.899  -0.050  1.00  0.00     0.142 C 
ATOM      2  C   UNL     1       1.504   1.113  -1.231  1.00  0.00     0.100 C 
ATOM      3  C   UNL     1       0.895   0.560  -2.447  1.00  0.00     0.197 C 
ATOM      4  O   UNL     1       1.401   0.726  -3.552  1.00  0.00    -0.289 OA
ATOM      5  C   UNL     1      -0.347  -0.206  -2.286  1.00  0.00     0.111 A 
ATOM      6  C   UNL     1      -1.011  -0.768  -3.380  1.00  0.00     0.176 A 
ATOM      7  C   UNL     1      -2.189  -1.495  -3.168  1.00  0.00     0.204 A 
ATOM      8  C   UNL     1      -2.723  -1.645  -1.874  1.00  0.00     0.168 A 
ATOM      9  C   UNL     1      -2.042  -1.082  -0.791  1.00  0.00     0.098 A 
ATOM     10  C   UNL     1      -0.860  -0.365  -1.001  1.00  0.00     0.146 A 
ATOM     11  O   UNL     1      -0.252   0.157   0.115  1.00  0.00    -0.455 OA
ENDROOT
BRANCH   1  12
ATOM     12  C   UNL     1       1.473   1.417   1.211  1.00  0.00     0.063 A 
ATOM     13  C   UNL     1       2.159   0.957   3.523  1.00  0.00     0.161 A 
ATOM     14  C   UNL     1       2.525   2.298   3.673  1.00  0.00     0.161 A 
ATOM     15  C   UNL     1       1.634   0.535   2.292  1.00  0.00     0.066 A 
ATOM     16  C   UNL     1       2.365   3.198   2.612  1.00  0.00     0.097 A 
ATOM     17  C   UNL     1       1.840   2.756   1.396  1.00  0.00     0.130 A 
BRANCH  13  18
ATOM     18  O   UNL     1       2.237  -0.057   4.439  1.00  0.00    -0.493 OA
ATOM     19  C   UNL     1       2.756   0.233   5.728  1.00  0.00     0.278 C 
ENDBRANCH  13  18
BRANCH  14  20
ATOM     20  O   UNL     1       3.043   2.768   4.848  1.00  0.00    -0.504 OA
ATOM     21  H   UNL     1       3.243   3.714   4.765  1.00  0.00     0.293 HD
ENDBRANCH  14  20
BRANCH  17  22
ATOM     22  O   UNL     1       1.670   3.651   0.373  1.00  0.00    -0.507 OA
ATOM     23  H   UNL     1       1.901   4.544   0.675  1.00  0.00     0.293 HD
ENDBRANCH  17  22
ENDBRANCH   1  12
BRANCH   6  24
ATOM     24  O   UNL     1      -0.542  -0.635  -4.663  1.00  0.00    -0.504 OA
ATOM     25  H   UNL     1       0.273  -0.085  -4.643  1.00  0.00     0.293 HD
ENDBRANCH   6  24
BRANCH   8  26
ATOM     26  O   UNL     1      -3.885  -2.365  -1.778  1.00  0.00    -0.493 OA
ATOM     27  C   UNL     1      -4.529  -2.406  -0.512  1.00  0.00     0.278 C 
ENDBRANCH   8  26
BRANCH   7  28
ATOM     28  O   UNL     1      -2.882  -2.005  -4.241  1.00  0.00    -0.490 OA
ATOM     29  C   UNL     1      -2.360  -3.284  -4.597  1.00  0.00     0.278 C 
ENDBRANCH   7  28
TORSDOF 7
