REMARK SMILES COc1cc(-c2cc(=O)c3c(O)c(OC)c(OC)cc3o2)c(O)cc1O
REMARK SMILES IDX 6 1 7 2 8 3 9 4 10 5 11 6 13 7 16 8 19 9 20 10 21 11 5 12
REMARK SMILES IDX 3 13 25 14 4 15 24 16 22 17 2 18 1 19 26 20 23 22 12 24
REMARK SMILES IDX 17 26 18 27 14 28 15 29
REMARK H PARENT 26 21 23 23 12 25
ROOT
ATOM      1  C   UNL     1       0.880   0.488  -0.956  1.00  0.00     0.142 C 
ATOM      2  C   UNL     1       0.509   0.193  -2.209  1.00  0.00     0.100 C 
ATOM      3  C   UNL     1      -0.803  -0.426  -2.434  1.00  0.00     0.197 C 
ATOM      4  O   UNL     1      -1.186  -0.732  -3.559  1.00  0.00    -0.289 OA
ATOM      5  C   UNL     1      -1.643  -0.673  -1.253  1.00  0.00     0.111 A 
ATOM      6  C   UNL     1      -2.917  -1.244  -1.362  1.00  0.00     0.176 A 
ATOM      7  C   UNL     1      -3.680  -1.455  -0.203  1.00  0.00     0.204 A 
ATOM      8  C   UNL     1      -3.152  -1.127   1.064  1.00  0.00     0.168 A 
ATOM      9  C   UNL     1      -1.879  -0.558   1.153  1.00  0.00     0.098 A 
ATOM     10  C   UNL     1      -1.130  -0.332  -0.004  1.00  0.00     0.146 A 
ATOM     11  O   UNL     1       0.114   0.225   0.168  1.00  0.00    -0.455 OA
ENDROOT
BRANCH   1  12
ATOM     12  C   UNL     1       2.192   1.098  -0.660  1.00  0.00     0.063 A 
ATOM     13  C   UNL     1       4.260   1.031   0.630  1.00  0.00     0.161 A 
ATOM     14  C   UNL     1       4.678   2.193  -0.026  1.00  0.00     0.161 A 
ATOM     15  C   UNL     1       3.014   0.490   0.311  1.00  0.00     0.066 A 
ATOM     16  C   UNL     1       3.888   2.819  -0.981  1.00  0.00     0.097 A 
ATOM     17  C   UNL     1       2.646   2.270  -1.292  1.00  0.00     0.130 A 
BRANCH  13  18
ATOM     18  O   UNL     1       5.149   0.534   1.547  1.00  0.00    -0.493 OA
ATOM     19  C   UNL     1       4.765  -0.653   2.233  1.00  0.00     0.278 C 
ENDBRANCH  13  18
BRANCH  14  20
ATOM     20  O   UNL     1       5.895   2.748   0.265  1.00  0.00    -0.504 OA
ATOM     21  H   UNL     1       6.283   2.167   0.948  1.00  0.00     0.293 HD
ENDBRANCH  14  20
BRANCH  17  22
ATOM     22  O   UNL     1       1.851   2.891  -2.219  1.00  0.00    -0.507 OA
ATOM     23  H   UNL     1       2.291   3.705  -2.518  1.00  0.00     0.293 HD
ENDBRANCH  17  22
ENDBRANCH   1  12
BRANCH   6  24
ATOM     24  O   UNL     1      -3.426  -1.622  -2.580  1.00  0.00    -0.504 OA
ATOM     25  H   UNL     1      -2.759  -1.427  -3.276  1.00  0.00     0.293 HD
ENDBRANCH   6  24
BRANCH   8  26
ATOM     26  O   UNL     1      -3.964  -1.384   2.140  1.00  0.00    -0.493 OA
ATOM     27  C   UNL     1      -3.444  -1.129   3.438  1.00  0.00     0.278 C 
ENDBRANCH   8  26
BRANCH   7  28
ATOM     28  O   UNL     1      -4.922  -2.048  -0.215  1.00  0.00    -0.490 OA
ATOM     29  C   UNL     1      -5.840  -1.447  -1.124  1.00  0.00     0.278 C 
ENDBRANCH   7  28
TORSDOF 7
