REMARK SMILES O=c1c(O[C@@H]2O[C@H](CO)[C@@H](O)[C@H](O)[C@H]2O)c(-c2ccc(O)cc2)oc2cc(O)cc(O)c12
REMARK SMILES IDX 4 1 3 2 16 3 24 4 2 5 25 6 1 7 32 8 26 9 30 10 27 11 29 12
REMARK SMILES IDX 17 13 18 14 19 15 20 16 23 17 22 18 21 19 31 21 28 23 5 25
REMARK SMILES IDX 14 26 6 27 12 28 7 29 10 30 15 31 13 33 8 35 9 36 11 38
REMARK H PARENT 21 20 31 22 28 24 15 32 13 34 9 37 11 39
ROOT
ATOM      1  O   UNL     1      -0.392  -1.352   0.317  1.00  0.00    -0.454 OA
ENDROOT
BRANCH   1   2
ATOM      2  C   UNL     1       0.660  -0.480   0.529  1.00  0.00     0.214 C 
ATOM      3  C   UNL     1       1.797  -0.445  -0.196  1.00  0.00     0.180 C 
ATOM      4  O   UNL     1       2.813   0.485  -0.012  1.00  0.00    -0.452 OA
ATOM      5  C   UNL     1       0.546   0.460   1.670  1.00  0.00     0.239 C 
ATOM      6  C   UNL     1       2.588   1.532   0.847  1.00  0.00     0.146 A 
ATOM      7  O   UNL     1      -0.282   0.332   2.566  1.00  0.00    -0.285 OA
ATOM      8  C   UNL     1       1.483   1.584   1.692  1.00  0.00     0.111 A 
ATOM      9  C   UNL     1       3.522   2.569   0.850  1.00  0.00     0.094 A 
ATOM     10  C   UNL     1       1.289   2.685   2.530  1.00  0.00     0.134 A 
ATOM     11  C   UNL     1       3.323   3.658   1.696  1.00  0.00     0.123 A 
ATOM     12  C   UNL     1       2.211   3.727   2.532  1.00  0.00     0.093 A 
BRANCH   3  13
ATOM     13  C   UNL     1       2.074  -1.391  -1.294  1.00  0.00     0.021 A 
ATOM     14  C   UNL     1       2.452  -0.910  -2.556  1.00  0.00     0.016 A 
ATOM     15  C   UNL     1       2.709  -1.796  -3.604  1.00  0.00     0.047 A 
ATOM     16  C   UNL     1       2.598  -3.165  -3.393  1.00  0.00     0.115 A 
ATOM     17  C   UNL     1       1.977  -2.779  -1.100  1.00  0.00     0.016 A 
ATOM     18  C   UNL     1       2.236  -3.666  -2.148  1.00  0.00     0.047 A 
BRANCH  16  19
ATOM     19  O   UNL     1       2.857  -3.991  -4.445  1.00  0.00    -0.508 OA
ATOM     20  H   UNL     1       2.781  -4.913  -4.145  1.00  0.00     0.293 HD
ENDBRANCH  16  19
ENDBRANCH   3  13
BRANCH  10  21
ATOM     21  O   UNL     1       0.204   2.807   3.357  1.00  0.00    -0.507 OA
ATOM     22  H   UNL     1      -0.329   1.979   3.287  1.00  0.00     0.293 HD
ENDBRANCH  10  21
BRANCH  11  23
ATOM     23  O   UNL     1       4.205   4.698   1.730  1.00  0.00    -0.508 OA
ATOM     24  H   UNL     1       4.943   4.513   1.126  1.00  0.00     0.293 HD
ENDBRANCH  11  23
ENDBRANCH   1   2
BRANCH   1  25
ATOM     25  C   UNL     1      -1.246  -0.893  -0.750  1.00  0.00     0.339 C 
ATOM     26  C   UNL     1      -2.443  -1.868  -0.883  1.00  0.00     0.214 C 
ATOM     27  O   UNL     1      -1.616   0.491  -0.619  1.00  0.00    -0.332 OA
ATOM     28  C   UNL     1      -3.484  -1.664   0.232  1.00  0.00     0.180 C 
ATOM     29  C   UNL     1      -2.919   0.734  -0.062  1.00  0.00     0.179 C 
ATOM     30  C   UNL     1      -3.292  -0.333   0.971  1.00  0.00     0.177 C 
BRANCH  26  31
ATOM     31  O   UNL     1      -3.097  -1.661  -2.152  1.00  0.00    -0.384 OA
ATOM     32  H   UNL     1      -2.494  -1.985  -2.845  1.00  0.00     0.211 HD
ENDBRANCH  26  31
BRANCH  28  33
ATOM     33  O   UNL     1      -3.427  -2.743   1.179  1.00  0.00    -0.387 OA
ATOM     34  H   UNL     1      -4.049  -2.493   1.890  1.00  0.00     0.211 HD
ENDBRANCH  28  33
BRANCH  29  35
ATOM     35  C   UNL     1      -2.963   2.171   0.483  1.00  0.00     0.191 C 
BRANCH  35  36
ATOM     36  O   UNL     1      -2.385   2.262   1.782  1.00  0.00    -0.394 OA
ATOM     37  H   UNL     1      -2.159   3.198   1.935  1.00  0.00     0.210 HD
ENDBRANCH  35  36
ENDBRANCH  29  35
BRANCH  30  38
ATOM     38  O   UNL     1      -4.492  -0.022   1.688  1.00  0.00    -0.387 OA
ATOM     39  H   UNL     1      -4.237   0.684   2.315  1.00  0.00     0.211 HD
ENDBRANCH  30  38
ENDBRANCH   1  25
TORSDOF 11
