REMARK SMILES O=c1c(O[C@@H]2O[C@H](CO)[C@@H](O)[C@H](O)[C@H]2O)c(-c2ccc(O)cc2)oc2cc(O)cc(O)c12
REMARK SMILES IDX 4 1 3 2 16 3 24 4 2 5 25 6 1 7 32 8 26 9 30 10 27 11 29 12
REMARK SMILES IDX 17 13 18 14 19 15 20 16 23 17 22 18 21 19 31 21 28 23 5 25
REMARK SMILES IDX 14 26 6 27 12 28 7 29 10 30 15 31 13 33 8 35 9 36 11 38
REMARK H PARENT 21 20 31 22 28 24 15 32 13 34 9 37 11 39
ROOT
ATOM      1  O   UNL     1       0.060  -1.481  -0.852  1.00  0.00    -0.454 OA
ENDROOT
BRANCH   1   2
ATOM      2  C   UNL     1      -0.660  -0.300  -0.872  1.00  0.00     0.214 C 
ATOM      3  C   UNL     1      -1.879  -0.191  -0.308  1.00  0.00     0.180 C 
ATOM      4  O   UNL     1      -2.637   0.967  -0.284  1.00  0.00    -0.452 OA
ATOM      5  C   UNL     1      -0.103   0.893  -1.571  1.00  0.00     0.239 C 
ATOM      6  C   UNL     1      -2.153   2.084  -0.913  1.00  0.00     0.146 A 
ATOM      7  O   UNL     1       0.988   0.885  -2.140  1.00  0.00    -0.285 OA
ATOM      8  C   UNL     1      -0.923   2.113  -1.566  1.00  0.00     0.111 A 
ATOM      9  C   UNL     1      -2.964   3.221  -0.879  1.00  0.00     0.094 A 
ATOM     10  C   UNL     1      -0.505   3.289  -2.199  1.00  0.00     0.134 A 
ATOM     11  C   UNL     1      -2.532   4.384  -1.509  1.00  0.00     0.123 A 
ATOM     12  C   UNL     1      -1.308   4.426  -2.169  1.00  0.00     0.093 A 
BRANCH   3  13
ATOM     13  C   UNL     1      -2.524  -1.312   0.406  1.00  0.00     0.021 A 
ATOM     14  C   UNL     1      -2.977  -1.131   1.721  1.00  0.00     0.016 A 
ATOM     15  C   UNL     1      -3.599  -2.176   2.408  1.00  0.00     0.047 A 
ATOM     16  C   UNL     1      -3.774  -3.403   1.781  1.00  0.00     0.115 A 
ATOM     17  C   UNL     1      -2.720  -2.557  -0.211  1.00  0.00     0.016 A 
ATOM     18  C   UNL     1      -3.341  -3.605   0.476  1.00  0.00     0.047 A 
BRANCH  16  19
ATOM     19  O   UNL     1      -4.383  -4.396   2.489  1.00  0.00    -0.508 OA
ATOM     20  H   UNL     1      -4.442  -5.187   1.928  1.00  0.00     0.293 HD
ENDBRANCH  16  19
ENDBRANCH   3  13
BRANCH  10  21
ATOM     21  O   UNL     1       0.681   3.396  -2.874  1.00  0.00    -0.507 OA
ATOM     22  H   UNL     1       1.142   2.532  -2.826  1.00  0.00     0.293 HD
ENDBRANCH  10  21
BRANCH  11  23
ATOM     23  O   UNL     1      -3.290   5.517  -1.503  1.00  0.00    -0.508 OA
ATOM     24  H   UNL     1      -4.109   5.354  -1.007  1.00  0.00     0.293 HD
ENDBRANCH  11  23
ENDBRANCH   1   2
BRANCH   1  25
ATOM     25  C   UNL     1       1.291  -1.422  -0.101  1.00  0.00     0.339 C 
ATOM     26  C   UNL     1       2.484  -1.569  -1.081  1.00  0.00     0.214 C 
ATOM     27  O   UNL     1       1.412  -0.261   0.730  1.00  0.00    -0.332 OA
ATOM     28  C   UNL     1       3.655  -0.663  -0.653  1.00  0.00     0.180 C 
ATOM     29  C   UNL     1       2.554  -0.314   1.607  1.00  0.00     0.179 C 
ATOM     30  C   UNL     1       3.839  -0.769   0.872  1.00  0.00     0.177 C 
BRANCH  26  31
ATOM     31  O   UNL     1       2.912  -2.946  -1.126  1.00  0.00    -0.384 OA
ATOM     32  H   UNL     1       3.414  -3.106  -0.298  1.00  0.00     0.211 HD
ENDBRANCH  26  31
BRANCH  28  33
ATOM     33  O   UNL     1       3.456   0.708  -1.016  1.00  0.00    -0.387 OA
ATOM     34  H   UNL     1       2.759   0.742  -1.708  1.00  0.00     0.211 HD
ENDBRANCH  28  33
BRANCH  29  35
ATOM     35  C   UNL     1       2.703   1.081   2.237  1.00  0.00     0.191 C 
BRANCH  35  36
ATOM     36  O   UNL     1       3.257   2.050   1.355  1.00  0.00    -0.394 OA
ATOM     37  H   UNL     1       3.054   1.787   0.431  1.00  0.00     0.210 HD
ENDBRANCH  35  36
ENDBRANCH  29  35
BRANCH  30  38
ATOM     38  O   UNL     1       4.095  -2.152   1.196  1.00  0.00    -0.387 OA
ATOM     39  H   UNL     1       4.528  -2.162   2.071  1.00  0.00     0.211 HD
ENDBRANCH  30  38
ENDBRANCH   1  25
TORSDOF 11
