REMARK SMILES O=c1c(O[C@@H]2O[C@H](CO)[C@@H](O)[C@H](O)[C@H]2O)c(-c2ccc(O)cc2)oc2cc(O)cc(O)c12
REMARK SMILES IDX 4 1 3 2 16 3 24 4 2 5 25 6 1 7 32 8 26 9 30 10 27 11 29 12
REMARK SMILES IDX 17 13 18 14 19 15 20 16 23 17 22 18 21 19 31 21 28 23 5 25
REMARK SMILES IDX 14 26 6 27 12 28 7 29 10 30 15 31 13 33 8 35 9 36 11 38
REMARK H PARENT 21 20 31 22 28 24 15 32 13 34 9 37 11 39
ROOT
ATOM      1  O   UNL     1       0.306  -0.043  -0.621  1.00  0.00    -0.454 OA
ENDROOT
BRANCH   1   2
ATOM      2  C   UNL     1      -0.925  -0.409  -0.102  1.00  0.00     0.214 C 
ATOM      3  C   UNL     1      -1.982   0.428  -0.139  1.00  0.00     0.180 C 
ATOM      4  O   UNL     1      -3.241   0.133   0.359  1.00  0.00    -0.452 OA
ATOM      5  C   UNL     1      -1.142  -1.772   0.471  1.00  0.00     0.239 C 
ATOM      6  C   UNL     1      -3.474  -1.112   0.877  1.00  0.00     0.146 A 
ATOM      7  O   UNL     1      -0.249  -2.615   0.554  1.00  0.00    -0.285 OA
ATOM      8  C   UNL     1      -2.492  -2.093   0.957  1.00  0.00     0.111 A 
ATOM      9  C   UNL     1      -4.765  -1.374   1.335  1.00  0.00     0.094 A 
ATOM     10  C   UNL     1      -2.806  -3.347   1.497  1.00  0.00     0.134 A 
ATOM     11  C   UNL     1      -5.064  -2.622   1.872  1.00  0.00     0.123 A 
ATOM     12  C   UNL     1      -4.094  -3.615   1.957  1.00  0.00     0.093 A 
BRANCH   3  13
ATOM     13  C   UNL     1      -1.901   1.796  -0.695  1.00  0.00     0.021 A 
ATOM     14  C   UNL     1      -2.378   2.882   0.058  1.00  0.00     0.016 A 
ATOM     15  C   UNL     1      -2.333   4.183  -0.453  1.00  0.00     0.047 A 
ATOM     16  C   UNL     1      -1.817   4.399  -1.725  1.00  0.00     0.115 A 
ATOM     17  C   UNL     1      -1.394   2.041  -1.979  1.00  0.00     0.016 A 
ATOM     18  C   UNL     1      -1.349   3.340  -2.491  1.00  0.00     0.047 A 
BRANCH  16  19
ATOM     19  O   UNL     1      -1.755   5.650  -2.264  1.00  0.00    -0.508 OA
ATOM     20  H   UNL     1      -2.093   6.286  -1.613  1.00  0.00     0.293 HD
ENDBRANCH  16  19
ENDBRANCH   3  13
BRANCH  10  21
ATOM     21  O   UNL     1      -1.897  -4.364   1.606  1.00  0.00    -0.507 OA
ATOM     22  H   UNL     1      -1.043  -4.054   1.235  1.00  0.00     0.293 HD
ENDBRANCH  10  21
BRANCH  11  23
ATOM     23  O   UNL     1      -6.338  -2.835   2.308  1.00  0.00    -0.508 OA
ATOM     24  H   UNL     1      -6.409  -3.744   2.647  1.00  0.00     0.293 HD
ENDBRANCH  11  23
ENDBRANCH   1   2
BRANCH   1  25
ATOM     25  C   UNL     1       1.441  -0.367   0.190  1.00  0.00     0.339 C 
ATOM     26  C   UNL     1       2.259  -1.493  -0.508  1.00  0.00     0.214 C 
ATOM     27  O   UNL     1       2.204   0.832   0.412  1.00  0.00    -0.332 OA
ATOM     28  C   UNL     1       3.491  -0.949  -1.236  1.00  0.00     0.180 C 
ATOM     29  C   UNL     1       3.524   0.531   0.855  1.00  0.00     0.179 C 
ATOM     30  C   UNL     1       4.343  -0.056  -0.311  1.00  0.00     0.177 C 
BRANCH  26  31
ATOM     31  O   UNL     1       2.709  -2.451   0.474  1.00  0.00    -0.384 OA
ATOM     32  H   UNL     1       1.893  -2.913   0.763  1.00  0.00     0.211 HD
ENDBRANCH  26  31
BRANCH  28  33
ATOM     33  O   UNL     1       3.081  -0.233  -2.405  1.00  0.00    -0.387 OA
ATOM     34  H   UNL     1       3.886   0.025  -2.889  1.00  0.00     0.211 HD
ENDBRANCH  28  33
BRANCH  29  35
ATOM     35  C   UNL     1       4.193   1.799   1.401  1.00  0.00     0.191 C 
BRANCH  35  36
ATOM     36  O   UNL     1       5.444   1.516   2.020  1.00  0.00    -0.394 OA
ATOM     37  H   UNL     1       5.929   0.891   1.444  1.00  0.00     0.210 HD
ENDBRANCH  35  36
ENDBRANCH  29  35
BRANCH  30  38
ATOM     38  O   UNL     1       5.456  -0.786   0.224  1.00  0.00    -0.387 OA
ATOM     39  H   UNL     1       5.095  -1.614   0.605  1.00  0.00     0.211 HD
ENDBRANCH  30  38
ENDBRANCH   1  25
TORSDOF 11
