REMARK SMILES COc1c(O)cc2c(c1O)C(=O)c1c(cc(C)c(O)c1OC)C2=O
REMARK SMILES IDX 17 1 16 2 15 3 14 4 13 5 20 6 18 7 11 8 12 9 8 10 9 11 3 12
REMARK SMILES IDX 4 13 6 14 7 15 23 16 24 17 19 18 21 20 22 21 10 22 5 24 2 26
REMARK SMILES IDX 1 27
REMARK H PARENT 19 19 10 23 5 25
ROOT
ATOM      1  C   UNL     1      -4.571   2.381  -0.954  1.00  0.00     0.048 C 
ATOM      2  C   UNL     1      -3.335   1.714  -0.421  1.00  0.00    -0.005 A 
ATOM      3  C   UNL     1      -2.413   1.162  -1.319  1.00  0.00     0.020 A 
ATOM      4  C   UNL     1      -1.242   0.533  -0.861  1.00  0.00     0.038 A 
ATOM      5  C   UNL     1      -0.976   0.431   0.505  1.00  0.00     0.080 A 
ATOM      6  C   UNL     1      -1.893   0.985   1.412  1.00  0.00     0.172 A 
ATOM      7  C   UNL     1      -3.050   1.638   0.947  1.00  0.00     0.161 A 
ATOM      8  C   UNL     1       0.257  -0.268   0.950  1.00  0.00     0.202 C 
ATOM      9  O   UNL     1       0.489  -0.505   2.131  1.00  0.00    -0.288 OA
ATOM     10  C   UNL     1       1.246  -0.732  -0.047  1.00  0.00     0.080 A 
ATOM     11  C   UNL     1       2.459  -1.315   0.356  1.00  0.00     0.173 A 
ATOM     12  C   UNL     1       3.382  -1.751  -0.603  1.00  0.00     0.203 A 
ATOM     13  C   UNL     1       3.088  -1.628  -1.963  1.00  0.00     0.162 A 
ATOM     14  C   UNL     1       1.888  -1.053  -2.372  1.00  0.00     0.063 A 
ATOM     15  C   UNL     1       0.970  -0.606  -1.409  1.00  0.00     0.041 A 
ATOM     16  C   UNL     1      -0.296  -0.004  -1.859  1.00  0.00     0.194 C 
ATOM     17  O   UNL     1      -0.555   0.057  -3.055  1.00  0.00    -0.289 OA
ENDROOT
BRANCH   7  18
ATOM     18  O   UNL     1      -3.885   2.199   1.877  1.00  0.00    -0.504 OA
ATOM     19  H   UNL     1      -4.495   2.818   1.448  1.00  0.00     0.293 HD
ENDBRANCH   7  18
BRANCH   6  20
ATOM     20  O   UNL     1      -1.621   0.999   2.758  1.00  0.00    -0.492 OA
ATOM     21  C   UNL     1      -2.344  -0.031   3.432  1.00  0.00     0.278 C 
ENDBRANCH   6  20
BRANCH  11  22
ATOM     22  O   UNL     1       2.788  -1.476   1.680  1.00  0.00    -0.504 OA
ATOM     23  H   UNL     1       2.027  -1.180   2.229  1.00  0.00     0.293 HD
ENDBRANCH  11  22
BRANCH  13  24
ATOM     24  O   UNL     1       3.991  -2.068  -2.889  1.00  0.00    -0.504 OA
ATOM     25  H   UNL     1       3.603  -2.010  -3.778  1.00  0.00     0.293 HD
ENDBRANCH  13  24
BRANCH  12  26
ATOM     26  O   UNL     1       4.540  -2.378  -0.217  1.00  0.00    -0.490 OA
ATOM     27  C   UNL     1       5.566  -1.414   0.007  1.00  0.00     0.278 C 
ENDBRANCH  12  26
TORSDOF 5
