REMARK SMILES COc1c(O)cc2c(c1O)C(=O)c1c(cc(C)c(O)c1OC)C2=O
REMARK SMILES IDX 17 1 16 2 15 3 14 4 13 5 20 6 18 7 11 8 12 9 8 10 9 11 3 12
REMARK SMILES IDX 4 13 6 14 7 15 23 16 24 17 19 18 21 20 22 21 10 22 5 24 2 26
REMARK SMILES IDX 1 27
REMARK H PARENT 19 19 10 23 5 25
ROOT
ATOM      1  C   UNL     1      -4.962   1.564  -0.988  1.00  0.00     0.048 C 
ATOM      2  C   UNL     1      -3.655   0.903  -0.662  1.00  0.00    -0.005 A 
ATOM      3  C   UNL     1      -2.501   1.666  -0.451  1.00  0.00     0.020 A 
ATOM      4  C   UNL     1      -1.267   1.047  -0.182  1.00  0.00     0.038 A 
ATOM      5  C   UNL     1      -1.167  -0.345  -0.103  1.00  0.00     0.080 A 
ATOM      6  C   UNL     1      -2.328  -1.110  -0.287  1.00  0.00     0.172 A 
ATOM      7  C   UNL     1      -3.544  -0.485  -0.598  1.00  0.00     0.161 A 
ATOM      8  C   UNL     1       0.157  -0.961   0.156  1.00  0.00     0.202 C 
ATOM      9  O   UNL     1       0.302  -2.176   0.248  1.00  0.00    -0.288 OA
ATOM     10  C   UNL     1       1.355  -0.109   0.320  1.00  0.00     0.080 A 
ATOM     11  C   UNL     1       2.619  -0.677   0.554  1.00  0.00     0.173 A 
ATOM     12  C   UNL     1       3.741   0.146   0.710  1.00  0.00     0.203 A 
ATOM     13  C   UNL     1       3.603   1.535   0.650  1.00  0.00     0.162 A 
ATOM     14  C   UNL     1       2.356   2.106   0.415  1.00  0.00     0.063 A 
ATOM     15  C   UNL     1       1.234   1.279   0.251  1.00  0.00     0.041 A 
ATOM     16  C   UNL     1      -0.078   1.901   0.006  1.00  0.00     0.194 C 
ATOM     17  O   UNL     1      -0.176   3.122  -0.042  1.00  0.00    -0.289 OA
ENDROOT
BRANCH   7  18
ATOM     18  O   UNL     1      -4.650  -1.250  -0.859  1.00  0.00    -0.504 OA
ATOM     19  H   UNL     1      -4.334  -2.172  -0.925  1.00  0.00     0.293 HD
ENDBRANCH   7  18
BRANCH   6  20
ATOM     20  O   UNL     1      -2.335  -2.483  -0.254  1.00  0.00    -0.492 OA
ATOM     21  C   UNL     1      -2.531  -2.950   1.085  1.00  0.00     0.278 C 
ENDBRANCH   6  20
BRANCH  11  22
ATOM     22  O   UNL     1       2.807  -2.036   0.635  1.00  0.00    -0.504 OA
ATOM     23  H   UNL     1       1.936  -2.480   0.524  1.00  0.00     0.293 HD
ENDBRANCH  11  22
BRANCH  13  24
ATOM     24  O   UNL     1       4.703   2.328   0.815  1.00  0.00    -0.504 OA
ATOM     25  H   UNL     1       4.434   3.261   0.842  1.00  0.00     0.293 HD
ENDBRANCH  13  24
BRANCH  12  26
ATOM     26  O   UNL     1       4.964  -0.401   1.005  1.00  0.00    -0.490 OA
ATOM     27  C   UNL     1       5.666  -0.704  -0.199  1.00  0.00     0.278 C 
ENDBRANCH  12  26
TORSDOF 5
