REMARK SMILES COc1c(O)cc2c(c1O)C(=O)c1c(cc(C)c(O)c1OC)C2=O
REMARK SMILES IDX 17 1 16 2 15 3 14 4 13 5 20 6 18 7 11 8 12 9 8 10 9 11 3 12
REMARK SMILES IDX 4 13 6 14 7 15 23 16 24 17 19 18 21 20 22 21 10 22 5 24 2 26
REMARK SMILES IDX 1 27
REMARK H PARENT 19 19 10 23 5 25
ROOT
ATOM      1  C   UNL     1      -5.172   1.455  -0.141  1.00  0.00     0.048 C 
ATOM      2  C   UNL     1      -3.791   0.869  -0.160  1.00  0.00    -0.005 A 
ATOM      3  C   UNL     1      -2.677   1.657   0.146  1.00  0.00     0.020 A 
ATOM      4  C   UNL     1      -1.377   1.120   0.092  1.00  0.00     0.038 A 
ATOM      5  C   UNL     1      -1.170  -0.218  -0.250  1.00  0.00     0.080 A 
ATOM      6  C   UNL     1      -2.289  -1.018  -0.529  1.00  0.00     0.172 A 
ATOM      7  C   UNL     1      -3.576  -0.461  -0.516  1.00  0.00     0.161 A 
ATOM      8  C   UNL     1       0.216  -0.741  -0.319  1.00  0.00     0.202 C 
ATOM      9  O   UNL     1       0.452  -1.916  -0.586  1.00  0.00    -0.288 OA
ATOM     10  C   UNL     1       1.370   0.152  -0.056  1.00  0.00     0.080 A 
ATOM     11  C   UNL     1       2.698  -0.332  -0.151  1.00  0.00     0.173 A 
ATOM     12  C   UNL     1       3.779   0.523   0.105  1.00  0.00     0.203 A 
ATOM     13  C   UNL     1       3.503   1.852   0.458  1.00  0.00     0.162 A 
ATOM     14  C   UNL     1       2.208   2.339   0.555  1.00  0.00     0.063 A 
ATOM     15  C   UNL     1       1.136   1.482   0.295  1.00  0.00     0.041 A 
ATOM     16  C   UNL     1      -0.237   2.005   0.398  1.00  0.00     0.194 C 
ATOM     17  O   UNL     1      -0.432   3.167   0.733  1.00  0.00    -0.289 OA
ENDROOT
BRANCH   7  18
ATOM     18  O   UNL     1      -4.650  -1.233  -0.876  1.00  0.00    -0.504 OA
ATOM     19  H   UNL     1      -4.280  -2.057  -1.246  1.00  0.00     0.293 HD
ENDBRANCH   7  18
BRANCH   6  20
ATOM     20  O   UNL     1      -2.194  -2.338  -0.897  1.00  0.00    -0.492 OA
ATOM     21  C   UNL     1      -2.197  -3.180   0.261  1.00  0.00     0.278 C 
ENDBRANCH   6  20
BRANCH  11  22
ATOM     22  O   UNL     1       2.940  -1.640  -0.492  1.00  0.00    -0.504 OA
ATOM     23  H   UNL     1       2.080  -2.099  -0.634  1.00  0.00     0.293 HD
ENDBRANCH  11  22
BRANCH  13  24
ATOM     24  O   UNL     1       4.530   2.720   0.720  1.00  0.00    -0.504 OA
ATOM     25  H   UNL     1       5.347   2.195   0.600  1.00  0.00     0.293 HD
ENDBRANCH  13  24
BRANCH  12  26
ATOM     26  O   UNL     1       5.123   0.251   0.066  1.00  0.00    -0.490 OA
ATOM     27  C   UNL     1       5.542  -1.050  -0.323  1.00  0.00     0.278 C 
ENDBRANCH  12  26
TORSDOF 5
