REMARK SMILES COc1ccc(-c2coc3cc(O)cc(O)c3c2=O)cc1
REMARK SMILES IDX 7 1 8 2 9 3 10 4 11 5 12 6 14 7 15 8 17 9 18 10 19 11 6 12
REMARK SMILES IDX 3 13 4 14 21 15 5 16 20 17 2 18 1 19 16 20 13 22
REMARK H PARENT 16 21 13 23
ROOT
ATOM      1  C   UNL     1      -0.131  -0.018  -0.533  1.00  0.00     0.065 C 
ATOM      2  C   UNL     1      -0.509   0.204  -1.801  1.00  0.00     0.208 C 
ATOM      3  O   UNL     1      -1.794   0.244  -2.284  1.00  0.00    -0.463 OA
ATOM      4  C   UNL     1      -2.817   0.029  -1.396  1.00  0.00     0.145 A 
ATOM      5  C   UNL     1      -4.116   0.073  -1.901  1.00  0.00     0.094 A 
ATOM      6  C   UNL     1      -5.193  -0.139  -1.045  1.00  0.00     0.123 A 
ATOM      7  C   UNL     1      -4.993  -0.395   0.308  1.00  0.00     0.093 A 
ATOM      8  C   UNL     1      -3.693  -0.438   0.807  1.00  0.00     0.134 A 
ATOM      9  C   UNL     1      -2.600  -0.227  -0.043  1.00  0.00     0.107 A 
ATOM     10  C   UNL     1      -1.216  -0.266   0.455  1.00  0.00     0.204 C 
ATOM     11  O   UNL     1      -1.007  -0.494   1.644  1.00  0.00    -0.288 OA
ENDROOT
BRANCH   1  12
ATOM     12  C   UNL     1       1.296  -0.043  -0.164  1.00  0.00    -0.011 A 
ATOM     13  C   UNL     1       4.032  -0.101   0.533  1.00  0.00     0.118 A 
ATOM     14  C   UNL     1       3.183  -1.148   0.895  1.00  0.00     0.047 A 
ATOM     15  C   UNL     1       3.511   0.980  -0.175  1.00  0.00     0.047 A 
ATOM     16  C   UNL     1       1.827  -1.121   0.553  1.00  0.00     0.013 A 
ATOM     17  C   UNL     1       2.153   1.009  -0.520  1.00  0.00     0.013 A 
BRANCH  13  18
ATOM     18  O   UNL     1       5.331  -0.255   0.929  1.00  0.00    -0.497 OA
ATOM     19  C   UNL     1       6.230   0.801   0.613  1.00  0.00     0.278 C 
ENDBRANCH  13  18
ENDBRANCH   1  12
BRANCH   8  20
ATOM     20  O   UNL     1      -3.559  -0.693   2.146  1.00  0.00    -0.507 OA
ATOM     21  H   UNL     1      -2.598  -0.690   2.362  1.00  0.00     0.293 HD
ENDBRANCH   8  20
BRANCH   6  22
ATOM     22  O   UNL     1      -6.446  -0.086  -1.579  1.00  0.00    -0.508 OA
ATOM     23  H   UNL     1      -7.095  -0.253  -0.874  1.00  0.00     0.293 HD
ENDBRANCH   6  22
TORSDOF 4
