REMARK SMILES COc1ccc(-c2coc3cc(O)cc(O)c3c2=O)cc1
REMARK SMILES IDX 7 1 8 2 9 3 10 4 11 5 12 6 14 7 15 8 17 9 18 10 19 11 6 12
REMARK SMILES IDX 3 13 4 14 21 15 5 16 20 17 2 18 1 19 16 20 13 22
REMARK H PARENT 16 21 13 23
ROOT
ATOM      1  C   UNL     1      -0.186   0.413  -0.056  1.00  0.00     0.065 C 
ATOM      2  C   UNL     1      -0.715   1.629  -0.265  1.00  0.00     0.208 C 
ATOM      3  O   UNL     1      -2.049   1.945  -0.350  1.00  0.00    -0.463 OA
ATOM      4  C   UNL     1      -2.957   0.927  -0.202  1.00  0.00     0.145 A 
ATOM      5  C   UNL     1      -4.307   1.264  -0.293  1.00  0.00     0.094 A 
ATOM      6  C   UNL     1      -5.273   0.271  -0.149  1.00  0.00     0.123 A 
ATOM      7  C   UNL     1      -4.911  -1.052   0.083  1.00  0.00     0.093 A 
ATOM      8  C   UNL     1      -3.560  -1.382   0.172  1.00  0.00     0.134 A 
ATOM      9  C   UNL     1      -2.579  -0.393   0.030  1.00  0.00     0.107 A 
ATOM     10  C   UNL     1      -1.144  -0.712   0.120  1.00  0.00     0.204 C 
ATOM     11  O   UNL     1      -0.794  -1.870   0.329  1.00  0.00    -0.288 OA
ENDROOT
BRANCH   1  12
ATOM     12  C   UNL     1       1.274   0.229   0.024  1.00  0.00    -0.011 A 
ATOM     13  C   UNL     1       4.072  -0.114   0.188  1.00  0.00     0.118 A 
ATOM     14  C   UNL     1       3.234  -0.612   1.187  1.00  0.00     0.047 A 
ATOM     15  C   UNL     1       3.509   0.553  -0.899  1.00  0.00     0.047 A 
ATOM     16  C   UNL     1       1.848  -0.445   1.107  1.00  0.00     0.013 A 
ATOM     17  C   UNL     1       2.121   0.722  -0.980  1.00  0.00     0.013 A 
BRANCH  13  18
ATOM     18  O   UNL     1       5.404  -0.345   0.390  1.00  0.00    -0.497 OA
ATOM     19  C   UNL     1       6.297   0.113  -0.617  1.00  0.00     0.278 C 
ENDBRANCH  13  18
ENDBRANCH   1  12
BRANCH   8  20
ATOM     20  O   UNL     1      -3.266  -2.700   0.401  1.00  0.00    -0.507 OA
ATOM     21  H   UNL     1      -2.286  -2.791   0.436  1.00  0.00     0.293 HD
ENDBRANCH   8  20
BRANCH   6  22
ATOM     22  O   UNL     1      -6.581   0.642  -0.245  1.00  0.00    -0.508 OA
ATOM     23  H   UNL     1      -7.140  -0.144  -0.125  1.00  0.00     0.293 HD
ENDBRANCH   6  22
TORSDOF 4
