REMARK SMILES COc1ccc(-c2coc3cc(O)cc(O)c3c2=O)cc1
REMARK SMILES IDX 7 1 8 2 9 3 10 4 11 5 12 6 14 7 15 8 17 9 18 10 19 11 6 12
REMARK SMILES IDX 3 13 4 14 21 15 5 16 20 17 2 18 1 19 16 20 13 22
REMARK H PARENT 16 21 13 23
ROOT
ATOM      1  C   UNL     1      -0.165  -0.050  -0.440  1.00  0.00     0.065 C 
ATOM      2  C   UNL     1      -0.624   0.177  -1.681  1.00  0.00     0.208 C 
ATOM      3  O   UNL     1      -1.916   0.474  -2.042  1.00  0.00    -0.463 OA
ATOM      4  C   UNL     1      -2.854   0.559  -1.044  1.00  0.00     0.145 A 
ATOM      5  C   UNL     1      -4.162   0.858  -1.433  1.00  0.00     0.094 A 
ATOM      6  C   UNL     1      -5.154   0.958  -0.461  1.00  0.00     0.123 A 
ATOM      7  C   UNL     1      -4.859   0.764   0.885  1.00  0.00     0.093 A 
ATOM      8  C   UNL     1      -3.554   0.465   1.266  1.00  0.00     0.134 A 
ATOM      9  C   UNL     1      -2.545   0.361   0.301  1.00  0.00     0.107 A 
ATOM     10  C   UNL     1      -1.154   0.048   0.668  1.00  0.00     0.204 C 
ATOM     11  O   UNL     1      -0.862  -0.120   1.849  1.00  0.00    -0.288 OA
ENDROOT
BRANCH   1  12
ATOM     12  C   UNL     1       1.260  -0.347  -0.206  1.00  0.00    -0.011 A 
ATOM     13  C   UNL     1       3.993  -0.899   0.251  1.00  0.00     0.118 A 
ATOM     14  C   UNL     1       3.278  -1.604  -0.719  1.00  0.00     0.047 A 
ATOM     15  C   UNL     1       3.340   0.081   0.996  1.00  0.00     0.047 A 
ATOM     16  C   UNL     1       1.924  -1.335  -0.945  1.00  0.00     0.013 A 
ATOM     17  C   UNL     1       1.984   0.353   0.769  1.00  0.00     0.013 A 
BRANCH  13  18
ATOM     18  O   UNL     1       5.305  -1.261   0.369  1.00  0.00    -0.497 OA
ATOM     19  C   UNL     1       6.065  -0.603   1.376  1.00  0.00     0.278 C 
ENDBRANCH  13  18
ENDBRANCH   1  12
BRANCH   8  20
ATOM     20  O   UNL     1      -3.327   0.284   2.604  1.00  0.00    -0.507 OA
ATOM     21  H   UNL     1      -2.374   0.075   2.728  1.00  0.00     0.293 HD
ENDBRANCH   8  20
BRANCH   6  22
ATOM     22  O   UNL     1      -6.444   1.249  -0.793  1.00  0.00    -0.508 OA
ATOM     23  H   UNL     1      -6.512   1.358  -1.755  1.00  0.00     0.293 HD
ENDBRANCH   6  22
TORSDOF 4
