REMARK SMILES CC#CC#CC(=O)c1ccccc1
REMARK SMILES IDX 5 1 6 2 7 3 4 4 3 5 2 6 1 7 8 8 9 9 13 10 10 11 12 12 11 13
REMARK H PARENT
ROOT
ATOM      1  C   UNL     1       0.653  -0.779   0.975  1.00  0.00    -0.009 C 
ATOM      2  C   UNL     1      -0.731  -1.023   1.303  1.00  0.00     0.236 C 
ATOM      3  O   UNL     1      -1.000  -1.776   2.230  1.00  0.00    -0.279 OA
ENDROOT
BRANCH   1   4
ATOM      4  C   UNL     1       1.808  -0.583   0.710  1.00  0.00    -0.007 C 
ATOM      5  C   UNL     1       3.286  -0.328   0.366  1.00  0.00    -0.015 C 
BRANCH   5   6
ATOM      6  C   UNL     1       4.439  -0.129   0.097  1.00  0.00    -0.093 C 
ATOM      7  C   UNL     1       5.845   0.110  -0.226  1.00  0.00     0.108 C 
ENDBRANCH   5   6
ENDBRANCH   1   4
BRANCH   2   8
ATOM      8  C   UNL     1      -1.789  -0.349   0.502  1.00  0.00     0.031 A 
ATOM      9  C   UNL     1      -1.494   0.515  -0.562  1.00  0.00     0.013 A 
ATOM     10  C   UNL     1      -3.129  -0.596   0.833  1.00  0.00     0.013 A 
ATOM     11  C   UNL     1      -2.529   1.121  -1.280  1.00  0.00     0.001 A 
ATOM     12  C   UNL     1      -4.159   0.011   0.113  1.00  0.00     0.001 A 
ATOM     13  C   UNL     1      -3.858   0.869  -0.943  1.00  0.00     0.000 A 
ENDBRANCH   2   8
TORSDOF 3
