REMARK SMILES CC#CC#CC(=O)c1ccccc1
REMARK SMILES IDX 5 1 6 2 7 3 4 4 3 5 2 6 1 7 8 8 9 9 13 10 10 11 12 12 11 13
REMARK H PARENT
ROOT
ATOM      1  C   UNL     1       0.762  -1.140   0.214  1.00  0.00    -0.009 C 
ATOM      2  C   UNL     1      -0.579  -1.669   0.285  1.00  0.00     0.236 C 
ATOM      3  O   UNL     1      -0.738  -2.867   0.476  1.00  0.00    -0.279 OA
ENDROOT
BRANCH   1   4
ATOM      4  C   UNL     1       1.882  -0.710   0.157  1.00  0.00    -0.007 C 
ATOM      5  C   UNL     1       3.315  -0.154   0.082  1.00  0.00    -0.015 C 
BRANCH   5   6
ATOM      6  C   UNL     1       4.433   0.280   0.024  1.00  0.00    -0.093 C 
ATOM      7  C   UNL     1       5.796   0.804  -0.046  1.00  0.00     0.108 C 
ENDBRANCH   5   6
ENDBRANCH   1   4
BRANCH   2   8
ATOM      8  C   UNL     1      -1.729  -0.736   0.124  1.00  0.00     0.031 A 
ATOM      9  C   UNL     1      -1.560   0.638  -0.094  1.00  0.00     0.013 A 
ATOM     10  C   UNL     1      -3.026  -1.265   0.196  1.00  0.00     0.013 A 
ATOM     11  C   UNL     1      -2.676   1.468  -0.238  1.00  0.00     0.001 A 
ATOM     12  C   UNL     1      -4.137  -0.433   0.051  1.00  0.00     0.001 A 
ATOM     13  C   UNL     1      -3.962   0.932  -0.165  1.00  0.00     0.000 A 
ENDBRANCH   2   8
TORSDOF 3
