REMARK SMILES CC#CC#CC(=O)c1ccccc1
REMARK SMILES IDX 5 1 6 2 7 3 4 4 3 5 2 6 1 7 8 8 9 9 13 10 10 11 12 12 11 13
REMARK H PARENT
ROOT
ATOM      1  C   UNL     1       0.741   1.180  -0.437  1.00  0.00    -0.009 C 
ATOM      2  C   UNL     1      -0.606   1.604  -0.739  1.00  0.00     0.236 C 
ATOM      3  O   UNL     1      -0.785   2.699  -1.255  1.00  0.00    -0.279 OA
ENDROOT
BRANCH   1   4
ATOM      4  C   UNL     1       1.865   0.838  -0.190  1.00  0.00    -0.007 C 
ATOM      5  C   UNL     1       3.303   0.393   0.129  1.00  0.00    -0.015 C 
BRANCH   5   6
ATOM      6  C   UNL     1       4.425   0.047   0.378  1.00  0.00    -0.093 C 
ATOM      7  C   UNL     1       5.794  -0.371   0.679  1.00  0.00     0.108 C 
ENDBRANCH   5   6
ENDBRANCH   1   4
BRANCH   2   8
ATOM      8  C   UNL     1      -1.736   0.692  -0.412  1.00  0.00     0.031 A 
ATOM      9  C   UNL     1      -1.545  -0.565   0.178  1.00  0.00     0.013 A 
ATOM     10  C   UNL     1      -3.039   1.117  -0.712  1.00  0.00     0.013 A 
ATOM     11  C   UNL     1      -2.644  -1.381   0.463  1.00  0.00     0.001 A 
ATOM     12  C   UNL     1      -4.133   0.299  -0.425  1.00  0.00     0.001 A 
ATOM     13  C   UNL     1      -3.935  -0.949   0.162  1.00  0.00     0.000 A 
ENDBRANCH   2   8
TORSDOF 3
