REMARK SMILES COc1c(O)cc2oc(Oc3ccc(O)cc3)cc(=O)c2c1O
REMARK SMILES IDX 10 1 9 2 3 3 22 4 4 5 21 6 6 7 7 8 19 9 8 10 18 11 20 12
REMARK SMILES IDX 2 13 1 14 23 15 5 17 11 19 12 20 17 21 13 22 16 23 14 24
REMARK SMILES IDX 15 25
REMARK H PARENT 23 16 5 18 15 26
ROOT
ATOM      1  O   UNL     1       2.111  -1.609  -1.718  1.00  0.00    -0.426 OA
ENDROOT
BRANCH   1   2
ATOM      2  C   UNL     1       0.805  -1.196  -1.438  1.00  0.00     0.294 C 
ATOM      3  C   UNL     1      -3.310   0.928   0.559  1.00  0.00     0.203 A 
ATOM      4  C   UNL     1      -3.119   0.063  -0.525  1.00  0.00     0.176 A 
ATOM      5  C   UNL     1      -2.182   1.332   1.293  1.00  0.00     0.165 A 
ATOM      6  C   UNL     1      -1.817  -0.372  -0.844  1.00  0.00     0.111 A 
ATOM      7  C   UNL     1      -0.897   0.905   0.982  1.00  0.00     0.098 A 
ATOM      8  C   UNL     1      -0.717   0.047  -0.096  1.00  0.00     0.149 A 
ATOM      9  C   UNL     1      -1.561  -1.280  -1.971  1.00  0.00     0.200 C 
ATOM     10  O   UNL     1       0.569  -0.347  -0.363  1.00  0.00    -0.425 OA
ATOM     11  C   UNL     1      -0.170  -1.669  -2.223  1.00  0.00     0.142 C 
ATOM     12  O   UNL     1      -2.478  -1.694  -2.672  1.00  0.00    -0.289 OA
BRANCH   3  13
ATOM     13  O   UNL     1      -4.478   1.467   1.037  1.00  0.00    -0.490 OA
ATOM     14  C   UNL     1      -5.692   1.139   0.374  1.00  0.00     0.278 C 
ENDBRANCH   3  13
BRANCH   4  15
ATOM     15  O   UNL     1      -4.192  -0.359  -1.270  1.00  0.00    -0.504 OA
ATOM     16  H   UNL     1      -3.874  -0.958  -1.984  1.00  0.00     0.293 HD
ENDBRANCH   4  15
BRANCH   5  17
ATOM     17  O   UNL     1      -2.328   2.179   2.362  1.00  0.00    -0.504 OA
ATOM     18  H   UNL     1      -3.288   2.359   2.414  1.00  0.00     0.293 HD
ENDBRANCH   5  17
ENDBRANCH   1   2
BRANCH   1  19
ATOM     19  C   UNL     1       3.123  -0.989  -1.029  1.00  0.00     0.131 A 
ATOM     20  C   UNL     1       3.837  -1.732  -0.089  1.00  0.00     0.051 A 
ATOM     21  C   UNL     1       3.475   0.331  -1.312  1.00  0.00     0.051 A 
ATOM     22  C   UNL     1       4.894  -1.138   0.603  1.00  0.00     0.050 A 
ATOM     23  C   UNL     1       4.531   0.923  -0.620  1.00  0.00     0.050 A 
ATOM     24  C   UNL     1       5.229   0.187   0.332  1.00  0.00     0.115 A 
BRANCH  24  25
ATOM     25  O   UNL     1       6.254   0.806   0.984  1.00  0.00    -0.508 OA
ATOM     26  H   UNL     1       6.643   0.182   1.617  1.00  0.00     0.293 HD
ENDBRANCH  24  25
ENDBRANCH   1  19
TORSDOF 6
