REMARK SMILES COc1c(O)cc2oc(Oc3ccc(O)cc3)cc(=O)c2c1O
REMARK SMILES IDX 10 1 9 2 3 3 22 4 4 5 21 6 6 7 7 8 19 9 8 10 18 11 20 12
REMARK SMILES IDX 2 13 1 14 23 15 5 17 11 19 12 20 17 21 13 22 16 23 14 24
REMARK SMILES IDX 15 25
REMARK H PARENT 23 16 5 18 15 26
ROOT
ATOM      1  O   UNL     1      -1.826  -1.842   1.607  1.00  0.00    -0.426 OA
ENDROOT
BRANCH   1   2
ATOM      2  C   UNL     1      -0.566  -1.504   1.103  1.00  0.00     0.294 C 
ATOM      3  C   UNL     1       3.286   0.737  -1.207  1.00  0.00     0.203 A 
ATOM      4  C   UNL     1       3.198  -0.420  -0.424  1.00  0.00     0.176 A 
ATOM      5  C   UNL     1       2.136   1.491  -1.474  1.00  0.00     0.165 A 
ATOM      6  C   UNL     1       1.958  -0.799   0.101  1.00  0.00     0.111 A 
ATOM      7  C   UNL     1       0.903   1.112  -0.948  1.00  0.00     0.098 A 
ATOM      8  C   UNL     1       0.820  -0.036  -0.159  1.00  0.00     0.149 A 
ATOM      9  C   UNL     1       1.804  -2.000   0.930  1.00  0.00     0.200 C 
ATOM     10  O   UNL     1      -0.421  -0.357   0.331  1.00  0.00    -0.425 OA
ATOM     11  C   UNL     1       0.456  -2.308   1.419  1.00  0.00     0.142 C 
ATOM     12  O   UNL     1       2.763  -2.713   1.200  1.00  0.00    -0.289 OA
BRANCH   3  13
ATOM     13  O   UNL     1       4.478   1.094  -1.785  1.00  0.00    -0.490 OA
ATOM     14  C   UNL     1       5.229   1.910  -0.888  1.00  0.00     0.278 C 
ENDBRANCH   3  13
BRANCH   4  15
ATOM     15  O   UNL     1       4.340  -1.144  -0.193  1.00  0.00    -0.504 OA
ATOM     16  H   UNL     1       4.111  -1.931   0.350  1.00  0.00     0.293 HD
ENDBRANCH   4  15
BRANCH   5  17
ATOM     17  O   UNL     1       2.238   2.613  -2.250  1.00  0.00    -0.504 OA
ATOM     18  H   UNL     1       1.351   2.957  -2.441  1.00  0.00     0.293 HD
ENDBRANCH   5  17
ENDBRANCH   1   2
BRANCH   1  19
ATOM     19  C   UNL     1      -2.899  -1.123   1.140  1.00  0.00     0.131 A 
ATOM     20  C   UNL     1      -3.571  -0.284   2.029  1.00  0.00     0.051 A 
ATOM     21  C   UNL     1      -3.349  -1.279  -0.173  1.00  0.00     0.051 A 
ATOM     22  C   UNL     1      -4.685   0.436   1.593  1.00  0.00     0.050 A 
ATOM     23  C   UNL     1      -4.460  -0.558  -0.607  1.00  0.00     0.050 A 
ATOM     24  C   UNL     1      -5.117   0.294   0.277  1.00  0.00     0.115 A 
BRANCH  24  25
ATOM     25  O   UNL     1      -6.200   0.978  -0.192  1.00  0.00    -0.508 OA
ATOM     26  H   UNL     1      -6.572   1.507   0.533  1.00  0.00     0.293 HD
ENDBRANCH  24  25
ENDBRANCH   1  19
TORSDOF 6
