REMARK SMILES CC#CC#CCc1ccccc1
REMARK SMILES IDX 3 1 4 2 2 3 1 4 5 5 6 6 7 7 8 8 12 9 9 10 11 11 10 12
REMARK H PARENT
ROOT
ATOM      1  C   UNL     1       3.196  -0.107   0.160  1.00  0.00    -0.016 C 
ATOM      2  C   UNL     1       1.911  -0.023  -0.684  1.00  0.00    -0.015 C 
ENDROOT
BRANCH   1   3
ATOM      3  C   UNL     1       4.198  -0.173   0.819  1.00  0.00    -0.093 C 
ATOM      4  C   UNL     1       5.416  -0.253   1.622  1.00  0.00     0.108 C 
ENDBRANCH   1   3
BRANCH   2   5
ATOM      5  C   UNL     1       0.909   0.042  -1.342  1.00  0.00    -0.084 C 
ATOM      6  C   UNL     1      -0.314   0.123  -2.151  1.00  0.00     0.126 C 
BRANCH   6   7
ATOM      7  C   UNL     1      -1.561   0.103  -1.302  1.00  0.00    -0.036 A 
ATOM      8  C   UNL     1      -2.172  -1.112  -0.961  1.00  0.00     0.005 A 
ATOM      9  C   UNL     1      -2.110   1.299  -0.815  1.00  0.00     0.005 A 
ATOM     10  C   UNL     1      -3.318  -1.130  -0.164  1.00  0.00     0.000 A 
ATOM     11  C   UNL     1      -3.257   1.278  -0.018  1.00  0.00     0.000 A 
ATOM     12  C   UNL     1      -3.861   0.065   0.305  1.00  0.00     0.000 A 
ENDBRANCH   6   7
ENDBRANCH   2   5
TORSDOF 3
