REMARK SMILES CC#CC#CCc1ccccc1
REMARK SMILES IDX 3 1 4 2 2 3 1 4 5 5 6 6 7 7 8 8 12 9 9 10 11 11 10 12
REMARK H PARENT
ROOT
ATOM      1  C   UNL     1       3.171   0.525  -0.027  1.00  0.00    -0.016 C 
ATOM      2  C   UNL     1       1.720   0.529   0.486  1.00  0.00    -0.015 C 
ENDROOT
BRANCH   1   3
ATOM      3  C   UNL     1       4.303   0.521  -0.427  1.00  0.00    -0.093 C 
ATOM      4  C   UNL     1       5.680   0.515  -0.917  1.00  0.00     0.108 C 
ENDBRANCH   1   3
BRANCH   2   5
ATOM      5  C   UNL     1       0.588   0.533   0.886  1.00  0.00    -0.084 C 
ATOM      6  C   UNL     1      -0.795   0.539   1.379  1.00  0.00     0.126 C 
BRANCH   6   7
ATOM      7  C   UNL     1      -1.769   0.012   0.354  1.00  0.00    -0.036 A 
ATOM      8  C   UNL     1      -2.068  -1.357   0.292  1.00  0.00     0.005 A 
ATOM      9  C   UNL     1      -2.366   0.879  -0.573  1.00  0.00     0.005 A 
ATOM     10  C   UNL     1      -2.958  -1.845  -0.666  1.00  0.00     0.000 A 
ATOM     11  C   UNL     1      -3.256   0.388  -1.530  1.00  0.00     0.000 A 
ATOM     12  C   UNL     1      -3.553  -0.972  -1.575  1.00  0.00     0.000 A 
ENDBRANCH   6   7
ENDBRANCH   2   5
TORSDOF 3
