REMARK SMILES COc1c(O)cc2oc(Oc3ccc(O)cc3)cc(=O)c2c1O
REMARK SMILES IDX 10 1 9 2 3 3 22 4 4 5 21 6 6 7 7 8 19 9 8 10 18 11 20 12
REMARK SMILES IDX 2 13 1 14 23 15 5 17 11 19 12 20 17 21 13 22 16 23 14 24
REMARK SMILES IDX 15 25
REMARK H PARENT 23 16 5 18 15 26
ROOT
ATOM      1  O   UNL     1       1.978   0.465   2.354  1.00  0.00    -0.426 OA
ENDROOT
BRANCH   1   2
ATOM      2  C   UNL     1       0.716   0.495   1.752  1.00  0.00     0.294 C 
ATOM      3  C   UNL     1      -3.207  -0.051  -1.370  1.00  0.00     0.203 A 
ATOM      4  C   UNL     1      -3.075   0.534  -0.105  1.00  0.00     0.176 A 
ATOM      5  C   UNL     1      -2.067  -0.627  -1.959  1.00  0.00     0.165 A 
ATOM      6  C   UNL     1      -1.818   0.527   0.534  1.00  0.00     0.111 A 
ATOM      7  C   UNL     1      -0.828  -0.636  -1.331  1.00  0.00     0.098 A 
ATOM      8  C   UNL     1      -0.706  -0.053  -0.076  1.00  0.00     0.149 A 
ATOM      9  C   UNL     1      -1.623   1.129   1.860  1.00  0.00     0.200 C 
ATOM     10  O   UNL     1       0.537  -0.086   0.502  1.00  0.00    -0.425 OA
ATOM     11  C   UNL     1      -0.276   1.075   2.436  1.00  0.00     0.142 C 
ATOM     12  O   UNL     1      -2.554   1.657   2.459  1.00  0.00    -0.289 OA
BRANCH   3  13
ATOM     13  O   UNL     1      -4.324  -0.153  -2.160  1.00  0.00    -0.490 OA
ATOM     14  C   UNL     1      -5.549   0.373  -1.666  1.00  0.00     0.278 C 
ENDBRANCH   3  13
BRANCH   4  15
ATOM     15  O   UNL     1      -4.159   1.111   0.507  1.00  0.00    -0.504 OA
ATOM     16  H   UNL     1      -3.884   1.466   1.383  1.00  0.00     0.293 HD
ENDBRANCH   4  15
BRANCH   5  17
ATOM     17  O   UNL     1      -2.156  -1.208  -3.197  1.00  0.00    -0.504 OA
ATOM     18  H   UNL     1      -3.092  -1.103  -3.460  1.00  0.00     0.293 HD
ENDBRANCH   5  17
ENDBRANCH   1   2
BRANCH   1  19
ATOM     19  C   UNL     1       3.022   0.004   1.593  1.00  0.00     0.131 A 
ATOM     20  C   UNL     1       3.540   0.774   0.549  1.00  0.00     0.051 A 
ATOM     21  C   UNL     1       3.600  -1.219   1.930  1.00  0.00     0.051 A 
ATOM     22  C   UNL     1       4.626   0.298  -0.189  1.00  0.00     0.050 A 
ATOM     23  C   UNL     1       4.685  -1.693   1.192  1.00  0.00     0.050 A 
ATOM     24  C   UNL     1       5.186  -0.934   0.139  1.00  0.00     0.115 A 
BRANCH  24  25
ATOM     25  O   UNL     1       6.247  -1.437  -0.554  1.00  0.00    -0.508 OA
ATOM     26  H   UNL     1       6.484  -0.811  -1.258  1.00  0.00     0.293 HD
ENDBRANCH  24  25
ENDBRANCH   1  19
TORSDOF 6
