REMARK SMILES Oc1cc(O)c2c(c1)O[C@H](c1ccc(O)c(O)c1)[C@@H](O)C2
REMARK SMILES IDX 21 1 19 2 10 3 9 4 7 5 8 6 2 7 3 8 4 9 6 10 20 11 11 13
REMARK SMILES IDX 18 14 12 15 16 16 13 17 14 18 17 19 15 21 5 23 1 25
REMARK H PARENT 20 12 17 20 15 22 5 24 1 26
ROOT
ATOM      1  C   UNL     1       1.446  -1.888  -0.500  1.00  0.00     0.079 C 
ATOM      2  C   UNL     1      -0.032  -1.593  -0.251  1.00  0.00     0.164 C 
ATOM      3  C   UNL     1      -0.330  -0.155  -0.722  1.00  0.00     0.232 C 
ATOM      4  O   UNL     1       0.445   0.821  -0.006  1.00  0.00    -0.482 OA
ATOM      5  C   UNL     1       1.776   0.532   0.123  1.00  0.00     0.131 A 
ATOM      6  C   UNL     1       2.586   1.599   0.519  1.00  0.00     0.093 A 
ATOM      7  C   UNL     1       3.952   1.397   0.681  1.00  0.00     0.122 A 
ATOM      8  C   UNL     1       4.520   0.149   0.457  1.00  0.00     0.092 A 
ATOM      9  C   UNL     1       3.700  -0.910   0.074  1.00  0.00     0.126 A 
ATOM     10  C   UNL     1       2.319  -0.740  -0.084  1.00  0.00     0.039 A 
ENDROOT
BRANCH   2  11
ATOM     11  O   UNL     1      -0.805  -2.570  -0.956  1.00  0.00    -0.389 OA
ATOM     12  H   UNL     1      -1.739  -2.433  -0.713  1.00  0.00     0.211 HD
ENDBRANCH   2  11
BRANCH   3  13
ATOM     13  C   UNL     1      -1.798   0.196  -0.515  1.00  0.00    -0.001 A 
ATOM     14  C   UNL     1      -2.293   0.536   0.758  1.00  0.00     0.057 A 
ATOM     15  C   UNL     1      -2.690   0.148  -1.605  1.00  0.00     0.012 A 
ATOM     16  C   UNL     1      -3.644   0.824   0.919  1.00  0.00     0.157 A 
ATOM     17  C   UNL     1      -4.045   0.435  -1.431  1.00  0.00     0.050 A 
ATOM     18  C   UNL     1      -4.510   0.770  -0.169  1.00  0.00     0.157 A 
BRANCH  16  19
ATOM     19  O   UNL     1      -4.170   1.164   2.134  1.00  0.00    -0.504 OA
ATOM     20  H   UNL     1      -3.442   1.205   2.778  1.00  0.00     0.293 HD
ENDBRANCH  16  19
BRANCH  18  21
ATOM     21  O   UNL     1      -5.836   1.049   0.000  1.00  0.00    -0.504 OA
ATOM     22  H   UNL     1      -5.922   1.259   0.951  1.00  0.00     0.293 HD
ENDBRANCH  18  21
ENDBRANCH   3  13
BRANCH   9  23
ATOM     23  O   UNL     1       4.239  -2.146  -0.155  1.00  0.00    -0.507 OA
ATOM     24  H   UNL     1       5.200  -2.098  -0.020  1.00  0.00     0.293 HD
ENDBRANCH   9  23
BRANCH   7  25
ATOM     25  O   UNL     1       4.781   2.413   1.058  1.00  0.00    -0.508 OA
ATOM     26  H   UNL     1       4.255   3.224   1.158  1.00  0.00     0.293 HD
ENDBRANCH   7  25
TORSDOF 6
