REMARK SMILES Oc1cc(O)c2c(c1)O[C@H](c1ccc(O)c(O)c1)[C@@H](O)C2
REMARK SMILES IDX 21 1 19 2 10 3 9 4 7 5 8 6 2 7 3 8 4 9 6 10 20 11 11 13
REMARK SMILES IDX 18 14 12 15 16 16 13 17 14 18 17 19 15 21 5 23 1 25
REMARK H PARENT 20 12 17 20 15 22 5 24 1 26
ROOT
ATOM      1  C   UNL     1       1.900  -0.897  -1.272  1.00  0.00     0.079 C 
ATOM      2  C   UNL     1       0.406  -1.115  -1.050  1.00  0.00     0.164 C 
ATOM      3  C   UNL     1      -0.219   0.219  -0.602  1.00  0.00     0.232 C 
ATOM      4  O   UNL     1       0.345   0.680   0.634  1.00  0.00    -0.482 OA
ATOM      5  C   UNL     1       1.713   0.656   0.698  1.00  0.00     0.131 A 
ATOM      6  C   UNL     1       2.269   1.397   1.744  1.00  0.00     0.093 A 
ATOM      7  C   UNL     1       3.649   1.438   1.895  1.00  0.00     0.122 A 
ATOM      8  C   UNL     1       4.477   0.753   1.016  1.00  0.00     0.092 A 
ATOM      9  C   UNL     1       3.915   0.008  -0.019  1.00  0.00     0.126 A 
ATOM     10  C   UNL     1       2.525  -0.074  -0.183  1.00  0.00     0.039 A 
ENDROOT
BRANCH   2  11
ATOM     11  O   UNL     1      -0.154  -1.596  -2.277  1.00  0.00    -0.389 OA
ATOM     12  H   UNL     1      -1.080  -1.841  -2.090  1.00  0.00     0.211 HD
ENDBRANCH   2  11
BRANCH   3  13
ATOM     13  C   UNL     1      -1.722   0.086  -0.394  1.00  0.00    -0.001 A 
ATOM     14  C   UNL     1      -2.241  -0.630   0.697  1.00  0.00     0.057 A 
ATOM     15  C   UNL     1      -2.616   0.661  -1.318  1.00  0.00     0.012 A 
ATOM     16  C   UNL     1      -3.614  -0.759   0.846  1.00  0.00     0.157 A 
ATOM     17  C   UNL     1      -4.000   0.528  -1.157  1.00  0.00     0.050 A 
ATOM     18  C   UNL     1      -4.490  -0.184  -0.071  1.00  0.00     0.157 A 
BRANCH  16  19
ATOM     19  O   UNL     1      -4.105  -1.462   1.908  1.00  0.00    -0.504 OA
ATOM     20  H   UNL     1      -5.076  -1.405   1.813  1.00  0.00     0.293 HD
ENDBRANCH  16  19
BRANCH  18  21
ATOM     21  O   UNL     1      -5.831  -0.351   0.140  1.00  0.00    -0.504 OA
ATOM     22  H   UNL     1      -6.309   0.125  -0.561  1.00  0.00     0.293 HD
ENDBRANCH  18  21
ENDBRANCH   3  13
BRANCH   9  23
ATOM     23  O   UNL     1       4.800  -0.627  -0.845  1.00  0.00    -0.507 OA
ATOM     24  H   UNL     1       4.332  -1.005  -1.605  1.00  0.00     0.293 HD
ENDBRANCH   9  23
BRANCH   7  25
ATOM     25  O   UNL     1       4.233   2.153   2.899  1.00  0.00    -0.508 OA
ATOM     26  H   UNL     1       3.535   2.559   3.438  1.00  0.00     0.293 HD
ENDBRANCH   7  25
TORSDOF 6
