REMARK SMILES Oc1cc(O)c2c(c1)O[C@H](c1ccc(O)c(O)c1)[C@@H](O)C2
REMARK SMILES IDX 21 1 19 2 10 3 9 4 7 5 8 6 2 7 3 8 4 9 6 10 20 11 11 13
REMARK SMILES IDX 18 14 12 15 16 16 13 17 14 18 17 19 15 21 5 23 1 25
REMARK H PARENT 20 12 17 20 15 22 5 24 1 26
ROOT
ATOM      1  C   UNL     1      -1.607   1.156  -1.207  1.00  0.00     0.079 C 
ATOM      2  C   UNL     1      -0.152   1.239  -0.753  1.00  0.00     0.164 C 
ATOM      3  C   UNL     1       0.336  -0.172  -0.376  1.00  0.00     0.232 C 
ATOM      4  O   UNL     1      -0.453  -0.755   0.673  1.00  0.00    -0.482 OA
ATOM      5  C   UNL     1      -1.809  -0.628   0.548  1.00  0.00     0.131 A 
ATOM      6  C   UNL     1      -2.559  -1.441   1.402  1.00  0.00     0.093 A 
ATOM      7  C   UNL     1      -3.946  -1.384   1.360  1.00  0.00     0.122 A 
ATOM      8  C   UNL     1      -4.590  -0.530   0.477  1.00  0.00     0.092 A 
ATOM      9  C   UNL     1      -3.836   0.279  -0.370  1.00  0.00     0.126 A 
ATOM     10  C   UNL     1      -2.434   0.264  -0.332  1.00  0.00     0.039 A 
ENDROOT
BRANCH   2  11
ATOM     11  O   UNL     1       0.614   1.791  -1.831  1.00  0.00    -0.389 OA
ATOM     12  H   UNL     1       0.544   2.761  -1.766  1.00  0.00     0.211 HD
ENDBRANCH   2  11
BRANCH   3  13
ATOM     13  C   UNL     1       1.786  -0.140   0.097  1.00  0.00    -0.001 A 
ATOM     14  C   UNL     1       2.826  -0.345  -0.829  1.00  0.00     0.057 A 
ATOM     15  C   UNL     1       2.114   0.128   1.441  1.00  0.00     0.012 A 
ATOM     16  C   UNL     1       4.150  -0.292  -0.404  1.00  0.00     0.157 A 
ATOM     17  C   UNL     1       3.447   0.176   1.857  1.00  0.00     0.050 A 
ATOM     18  C   UNL     1       4.453  -0.036   0.929  1.00  0.00     0.157 A 
BRANCH  16  19
ATOM     19  O   UNL     1       5.194  -0.481  -1.269  1.00  0.00    -0.504 OA
ATOM     20  H   UNL     1       4.824  -0.626  -2.157  1.00  0.00     0.293 HD
ENDBRANCH  16  19
BRANCH  18  21
ATOM     21  O   UNL     1       5.756   0.014   1.335  1.00  0.00    -0.504 OA
ATOM     22  H   UNL     1       6.270  -0.164   0.522  1.00  0.00     0.293 HD
ENDBRANCH  18  21
ENDBRANCH   3  13
BRANCH   9  23
ATOM     23  O   UNL     1      -4.545   1.079  -1.222  1.00  0.00    -0.507 OA
ATOM     24  H   UNL     1      -3.961   1.417  -1.919  1.00  0.00     0.293 HD
ENDBRANCH   9  23
BRANCH   7  25
ATOM     25  O   UNL     1      -4.716  -2.162   2.174  1.00  0.00    -0.508 OA
ATOM     26  H   UNL     1      -4.132  -2.700   2.734  1.00  0.00     0.293 HD
ENDBRANCH   7  25
TORSDOF 6
