REMARK SMILES COc1cc2c(c(OC)c1OC)C(=O)c1c(cc(C)c(O)c1OC)C2=O
REMARK SMILES IDX 19 1 18 2 17 3 16 4 15 5 22 6 20 7 13 8 14 9 6 10 7 11 10 12
REMARK SMILES IDX 3 13 4 14 5 15 25 16 26 17 21 18 23 20 24 21 8 22 9 23 2 24
REMARK SMILES IDX 1 25 11 26 12 27
REMARK H PARENT 21 19
ROOT
ATOM      1  C   UNL     1       5.242   2.167   1.142  1.00  0.00     0.048 C 
ATOM      2  C   UNL     1       4.049   1.387   0.676  1.00  0.00    -0.005 A 
ATOM      3  C   UNL     1       2.822   1.495   1.341  1.00  0.00     0.020 A 
ATOM      4  C   UNL     1       1.692   0.798   0.879  1.00  0.00     0.038 A 
ATOM      5  C   UNL     1       1.770  -0.041  -0.235  1.00  0.00     0.080 A 
ATOM      6  C   UNL     1       3.004  -0.168  -0.890  1.00  0.00     0.172 A 
ATOM      7  C   UNL     1       4.114   0.572  -0.454  1.00  0.00     0.161 A 
ATOM      8  C   UNL     1       0.556  -0.776  -0.667  1.00  0.00     0.202 C 
ATOM      9  O   UNL     1       0.655  -1.762  -1.387  1.00  0.00    -0.288 OA
ATOM     10  C   UNL     1      -0.772  -0.351  -0.154  1.00  0.00     0.080 A 
ATOM     11  C   UNL     1      -1.975  -0.780  -0.735  1.00  0.00     0.176 A 
ATOM     12  C   UNL     1      -3.206  -0.367  -0.193  1.00  0.00     0.204 A 
ATOM     13  C   UNL     1      -3.258   0.421   0.967  1.00  0.00     0.165 A 
ATOM     14  C   UNL     1      -2.061   0.846   1.539  1.00  0.00     0.063 A 
ATOM     15  C   UNL     1      -0.829   0.471   0.972  1.00  0.00     0.041 A 
ATOM     16  C   UNL     1       0.411   0.983   1.584  1.00  0.00     0.194 C 
ATOM     17  O   UNL     1       0.370   1.584   2.652  1.00  0.00    -0.289 OA
ENDROOT
BRANCH   7  18
ATOM     18  O   UNL     1       5.286   0.515  -1.161  1.00  0.00    -0.504 OA
ATOM     19  H   UNL     1       5.077   0.045  -1.991  1.00  0.00     0.293 HD
ENDBRANCH   7  18
BRANCH   6  20
ATOM     20  O   UNL     1       3.171  -0.925  -2.023  1.00  0.00    -0.492 OA
ATOM     21  C   UNL     1       3.567  -2.258  -1.680  1.00  0.00     0.278 C 
ENDBRANCH   6  20
BRANCH  11  22
ATOM     22  O   UNL     1      -1.970  -1.506  -1.900  1.00  0.00    -0.492 OA
ATOM     23  C   UNL     1      -2.217  -2.888  -1.635  1.00  0.00     0.278 C 
ENDBRANCH  11  22
BRANCH  13  24
ATOM     24  O   UNL     1      -4.506   0.735   1.434  1.00  0.00    -0.493 OA
ATOM     25  C   UNL     1      -4.589   1.419   2.678  1.00  0.00     0.278 C 
ENDBRANCH  13  24
BRANCH  12  26
ATOM     26  O   UNL     1      -4.378  -0.795  -0.772  1.00  0.00    -0.490 OA
ATOM     27  C   UNL     1      -4.808   0.146  -1.756  1.00  0.00     0.278 C 
ENDBRANCH  12  26
TORSDOF 5
