REMARK SMILES COc1cc2c(c(OC)c1OC)C(=O)c1c(cc(C)c(O)c1OC)C2=O
REMARK SMILES IDX 19 1 18 2 17 3 16 4 15 5 22 6 20 7 13 8 14 9 6 10 7 11 10 12
REMARK SMILES IDX 3 13 4 14 5 15 25 16 26 17 21 18 23 20 24 21 8 22 9 23 2 24
REMARK SMILES IDX 1 25 11 26 12 27
REMARK H PARENT 21 19
ROOT
ATOM      1  C   UNL     1      -5.127   2.677   0.182  1.00  0.00     0.048 C 
ATOM      2  C   UNL     1      -3.977   1.715   0.124  1.00  0.00    -0.005 A 
ATOM      3  C   UNL     1      -2.697   2.108   0.529  1.00  0.00     0.020 A 
ATOM      4  C   UNL     1      -1.609   1.222   0.433  1.00  0.00     0.038 A 
ATOM      5  C   UNL     1      -1.784  -0.080  -0.040  1.00  0.00     0.080 A 
ATOM      6  C   UNL     1      -3.071  -0.484  -0.426  1.00  0.00     0.172 A 
ATOM      7  C   UNL     1      -4.139   0.424  -0.377  1.00  0.00     0.161 A 
ATOM      8  C   UNL     1      -0.610  -0.987  -0.096  1.00  0.00     0.202 C 
ATOM      9  O   UNL     1      -0.770  -2.199  -0.158  1.00  0.00    -0.288 OA
ATOM     10  C   UNL     1       0.756  -0.413   0.002  1.00  0.00     0.080 A 
ATOM     11  C   UNL     1       1.904  -1.142  -0.344  1.00  0.00     0.176 A 
ATOM     12  C   UNL     1       3.177  -0.559  -0.207  1.00  0.00     0.204 A 
ATOM     13  C   UNL     1       3.330   0.727   0.334  1.00  0.00     0.165 A 
ATOM     14  C   UNL     1       2.186   1.447   0.674  1.00  0.00     0.063 A 
ATOM     15  C   UNL     1       0.911   0.883   0.496  1.00  0.00     0.041 A 
ATOM     16  C   UNL     1      -0.271   1.700   0.826  1.00  0.00     0.194 C 
ATOM     17  O   UNL     1      -0.138   2.779   1.391  1.00  0.00    -0.289 OA
ENDROOT
BRANCH   7  18
ATOM     18  O   UNL     1      -5.369   0.048  -0.849  1.00  0.00    -0.504 OA
ATOM     19  H   UNL     1      -5.234  -0.805  -1.306  1.00  0.00     0.293 HD
ENDBRANCH   7  18
BRANCH   6  20
ATOM     20  O   UNL     1      -3.336  -1.724  -0.952  1.00  0.00    -0.492 OA
ATOM     21  C   UNL     1      -3.695  -2.642   0.087  1.00  0.00     0.278 C 
ENDBRANCH   6  20
BRANCH  11  22
ATOM     22  O   UNL     1       1.798  -2.380  -0.926  1.00  0.00    -0.492 OA
ATOM     23  C   UNL     1       2.071  -3.412   0.025  1.00  0.00     0.278 C 
ENDBRANCH  11  22
BRANCH  13  24
ATOM     24  O   UNL     1       4.613   1.186   0.460  1.00  0.00    -0.493 OA
ATOM     25  C   UNL     1       4.804   2.428   1.126  1.00  0.00     0.278 C 
ENDBRANCH  13  24
BRANCH  12  26
ATOM     26  O   UNL     1       4.295  -1.284  -0.549  1.00  0.00    -0.490 OA
ATOM     27  C   UNL     1       4.632  -1.043  -1.915  1.00  0.00     0.278 C 
ENDBRANCH  12  26
TORSDOF 5
