REMARK SMILES COc1cc2c(c(OC)c1OC)C(=O)c1c(cc(C)c(O)c1OC)C2=O
REMARK SMILES IDX 19 1 18 2 17 3 16 4 15 5 22 6 20 7 13 8 14 9 6 10 7 11 10 12
REMARK SMILES IDX 3 13 4 14 5 15 25 16 26 17 21 18 23 20 24 21 8 22 9 23 2 24
REMARK SMILES IDX 1 25 11 26 12 27
REMARK H PARENT 21 19
ROOT
ATOM      1  C   UNL     1       5.445  -1.605   1.186  1.00  0.00     0.048 C 
ATOM      2  C   UNL     1       4.190  -0.889   0.777  1.00  0.00    -0.005 A 
ATOM      3  C   UNL     1       2.979  -1.594   0.746  1.00  0.00     0.020 A 
ATOM      4  C   UNL     1       1.785  -0.956   0.374  1.00  0.00     0.038 A 
ATOM      5  C   UNL     1       1.779   0.388   0.006  1.00  0.00     0.080 A 
ATOM      6  C   UNL     1       2.983   1.106   0.043  1.00  0.00     0.172 A 
ATOM      7  C   UNL     1       4.173   0.473   0.448  1.00  0.00     0.161 A 
ATOM      8  C   UNL     1       0.508   0.989  -0.464  1.00  0.00     0.202 C 
ATOM      9  O   UNL     1       0.516   1.936  -1.239  1.00  0.00    -0.288 OA
ATOM     10  C   UNL     1      -0.772   0.342  -0.081  1.00  0.00     0.080 A 
ATOM     11  C   UNL     1      -2.001   1.015  -0.128  1.00  0.00     0.176 A 
ATOM     12  C   UNL     1      -3.199   0.338   0.179  1.00  0.00     0.204 A 
ATOM     13  C   UNL     1      -3.173  -1.019   0.551  1.00  0.00     0.165 A 
ATOM     14  C   UNL     1      -1.944  -1.683   0.591  1.00  0.00     0.063 A 
ATOM     15  C   UNL     1      -0.755  -1.002   0.288  1.00  0.00     0.041 A 
ATOM     16  C   UNL     1       0.526  -1.725   0.398  1.00  0.00     0.194 C 
ATOM     17  O   UNL     1       0.541  -2.941   0.548  1.00  0.00    -0.289 OA
ENDROOT
BRANCH   7  18
ATOM     18  O   UNL     1       5.311   1.232   0.516  1.00  0.00    -0.504 OA
ATOM     19  H   UNL     1       5.987   0.771   1.036  1.00  0.00     0.293 HD
ENDBRANCH   7  18
BRANCH   6  20
ATOM     20  O   UNL     1       2.983   2.459  -0.190  1.00  0.00    -0.492 OA
ATOM     21  C   UNL     1       3.504   2.752  -1.487  1.00  0.00     0.278 C 
ENDBRANCH   6  20
BRANCH  11  22
ATOM     22  O   UNL     1      -2.032   2.368  -0.363  1.00  0.00    -0.492 OA
ATOM     23  C   UNL     1      -2.418   2.648  -1.709  1.00  0.00     0.278 C 
ENDBRANCH  11  22
BRANCH  13  24
ATOM     24  O   UNL     1      -4.367  -1.600   0.885  1.00  0.00    -0.493 OA
ATOM     25  C   UNL     1      -4.348  -2.935   1.374  1.00  0.00     0.278 C 
ENDBRANCH  13  24
BRANCH  12  26
ATOM     26  O   UNL     1      -4.350   1.092   0.186  1.00  0.00    -0.490 OA
ATOM     27  C   UNL     1      -5.399   0.548  -0.613  1.00  0.00     0.278 C 
ENDBRANCH  12  26
TORSDOF 5
