REMARK SMILES C[C@H]1[C@H](C)CC[C@]2(C(=O)O)CC[C@]3(C)C(=CC[C@@H]4[C@@]5(C)C[C@@H](O)[C@H](O)C(C)(C)[C@@H]5CC[C@]43C)[C@H]12
REMARK SMILES IDX 4 1 3 2 5 3 6 4 7 5 11 6 12 7 13 8 15 9 16 10 17 11 18 12
REMARK SMILES IDX 32 13 31 14 30 15 29 16 19 17 21 18 22 19 24 20 26 21 27 22
REMARK SMILES IDX 28 23 20 24 33 25 34 26 2 27 1 28 14 29 8 30 9 31 10 32
REMARK SMILES IDX 23 34 25 36
REMARK H PARENT 10 33 23 35 25 37
ROOT
ATOM      1  C   UNL     1      -6.104   0.736  -2.584  1.00  0.00     0.008 C 
ATOM      2  C   UNL     1      -5.302  -0.416  -1.960  1.00  0.00    -0.011 C 
ATOM      3  C   UNL     1      -6.035  -0.963  -0.723  1.00  0.00     0.005 C 
ATOM      4  C   UNL     1      -5.567  -0.288   0.560  1.00  0.00     0.020 C 
ATOM      5  C   UNL     1      -4.056  -0.525   0.843  1.00  0.00     0.075 C 
ATOM      6  C   UNL     1      -3.516   0.735   1.564  1.00  0.00     0.020 C 
ATOM      7  C   UNL     1      -2.018   0.657   1.858  1.00  0.00     0.013 C 
ATOM      8  C   UNL     1      -1.120   0.426   0.609  1.00  0.00    -0.006 C 
ATOM      9  C   UNL     1      -1.723  -0.690  -0.268  1.00  0.00    -0.063 C 
ATOM     10  C   UNL     1      -0.941  -1.613  -0.865  1.00  0.00    -0.027 C 
ATOM     11  C   UNL     1       0.555  -1.671  -0.823  1.00  0.00     0.032 C 
ATOM     12  C   UNL     1       1.216  -0.425  -0.198  1.00  0.00     0.006 C 
ATOM     13  C   UNL     1       0.409   0.048   1.072  1.00  0.00    -0.020 C 
ATOM     14  C   UNL     1       1.117   1.271   1.718  1.00  0.00     0.008 C 
ATOM     15  C   UNL     1       2.630   1.123   1.892  1.00  0.00     0.005 C 
ATOM     16  C   UNL     1       3.304   0.853   0.531  1.00  0.00     0.004 C 
ATOM     17  C   UNL     1       2.806  -0.515  -0.068  1.00  0.00    -0.023 C 
ATOM     18  C   UNL     1       3.408  -0.660  -1.498  1.00  0.00     0.042 C 
ATOM     19  C   UNL     1       4.921  -0.461  -1.561  1.00  0.00     0.144 C 
ATOM     20  C   UNL     1       5.356   0.885  -0.966  1.00  0.00     0.149 C 
ATOM     21  C   UNL     1       4.858   1.116   0.491  1.00  0.00    -0.003 C 
ATOM     22  C   UNL     1       5.139   2.603   0.850  1.00  0.00     0.014 C 
ATOM     23  C   UNL     1       5.661   0.277   1.504  1.00  0.00     0.014 C 
ATOM     24  C   UNL     1       3.272  -1.742   0.755  1.00  0.00     0.012 C 
ATOM     25  C   UNL     1       0.369  -1.081   2.147  1.00  0.00     0.012 C 
ATOM     26  C   UNL     1      -3.248  -0.796  -0.466  1.00  0.00     0.036 C 
ATOM     27  C   UNL     1      -3.839   0.030  -1.655  1.00  0.00    -0.003 C 
ATOM     28  C   UNL     1      -2.999  -0.064  -2.938  1.00  0.00     0.008 C 
ATOM     29  C   UNL     1      -1.148   1.739  -0.226  1.00  0.00     0.017 C 
ENDROOT
BRANCH   5  30
ATOM     30  C   UNL     1      -3.980  -1.725   1.798  1.00  0.00     0.310 C 
ATOM     31  O   UNL     1      -3.853  -1.683   3.012  1.00  0.00    -0.252 OA
BRANCH  30  32
ATOM     32  O   UNL     1      -4.156  -2.920   1.203  1.00  0.00    -0.481 OA
ATOM     33  H   UNL     1      -4.102  -3.558   1.944  1.00  0.00     0.296 HD
ENDBRANCH  30  32
ENDBRANCH   5  30
BRANCH  19  34
ATOM     34  O   UNL     1       5.324  -0.502  -2.937  1.00  0.00    -0.390 OA
ATOM     35  H   UNL     1       6.268  -0.245  -2.924  1.00  0.00     0.211 HD
ENDBRANCH  19  34
BRANCH  20  36
ATOM     36  O   UNL     1       6.788   0.939  -1.064  1.00  0.00    -0.390 OA
ATOM     37  H   UNL     1       7.058   1.861  -0.915  1.00  0.00     0.211 HD
ENDBRANCH  20  36
TORSDOF 4
