REMARK SMILES O=c1c(-c2ccc(O)cc2)coc2cc(O)ccc12
REMARK SMILES IDX 3 1 11 2 12 3 13 4 19 5 2 6 1 7 18 8 17 9 15 10 14 11 4 12
REMARK SMILES IDX 5 13 6 14 7 15 10 16 9 17 8 18 16 20
REMARK H PARENT 8 19 16 21
ROOT
ATOM      1  C   UNL     1       0.375   0.322  -0.142  1.00  0.00     0.065 C 
ATOM      2  C   UNL     1      -0.294   1.215  -0.889  1.00  0.00     0.208 C 
ATOM      3  O   UNL     1      -1.655   1.297  -1.059  1.00  0.00    -0.463 OA
ATOM      4  C   UNL     1      -2.435   0.375  -0.408  1.00  0.00     0.141 A 
ATOM      5  C   UNL     1      -1.900  -0.627   0.399  1.00  0.00     0.066 A 
ATOM      6  C   UNL     1      -0.437  -0.709   0.567  1.00  0.00     0.200 C 
ATOM      7  O   UNL     1       0.062  -1.588   1.259  1.00  0.00    -0.288 OA
ATOM      8  C   UNL     1      -2.743  -1.542   1.038  1.00  0.00     0.020 A 
ATOM      9  C   UNL     1      -4.125  -1.445   0.862  1.00  0.00     0.047 A 
ATOM     10  C   UNL     1      -4.649  -0.440   0.054  1.00  0.00     0.119 A 
ATOM     11  C   UNL     1      -3.816   0.474  -0.585  1.00  0.00     0.094 A 
ENDROOT
BRANCH   1  12
ATOM     12  C   UNL     1       1.849   0.358  -0.069  1.00  0.00    -0.011 A 
ATOM     13  C   UNL     1       2.600  -0.810  -0.269  1.00  0.00     0.013 A 
ATOM     14  C   UNL     1       3.997  -0.785  -0.207  1.00  0.00     0.047 A 
ATOM     15  C   UNL     1       4.648   0.415   0.058  1.00  0.00     0.115 A 
ATOM     16  C   UNL     1       2.530   1.555   0.204  1.00  0.00     0.013 A 
ATOM     17  C   UNL     1       3.926   1.583   0.264  1.00  0.00     0.047 A 
BRANCH  15  18
ATOM     18  O   UNL     1       6.007   0.486   0.128  1.00  0.00    -0.508 OA
ATOM     19  H   UNL     1       6.369  -0.407   0.008  1.00  0.00     0.293 HD
ENDBRANCH  15  18
ENDBRANCH   1  12
BRANCH  10  20
ATOM     20  O   UNL     1      -6.004  -0.386  -0.086  1.00  0.00    -0.508 OA
ATOM     21  H   UNL     1      -6.234   0.357  -0.669  1.00  0.00     0.293 HD
ENDBRANCH  10  20
TORSDOF 3
