REMARK SMILES O=c1c(-c2ccc(O)cc2)coc2cc(O[C@@H]3O[C@H](CO)[C@@H](O)[C@H](O)[C@H]3O)ccc12
REMARK SMILES IDX 16 1 15 2 3 3 11 4 2 5 12 6 30 7 1 8 13 9 29 10 14 11 28 12
REMARK SMILES IDX 4 13 5 14 6 15 7 16 10 17 9 18 8 19 17 21 26 22 18 23 24 24
REMARK SMILES IDX 19 25 22 26 27 27 25 29 20 31 21 32 23 34
REMARK H PARENT 8 20 27 28 25 30 21 33 23 35
ROOT
ATOM      1  O   UNL     1      -1.953  -1.535   1.679  1.00  0.00    -0.462 OA
ENDROOT
BRANCH   1   2
ATOM      2  C   UNL     1      -0.656  -1.282   1.332  1.00  0.00     0.126 A 
ATOM      3  C   UNL     1       3.855   0.225  -0.519  1.00  0.00     0.065 C 
ATOM      4  C   UNL     1       2.830   0.817  -1.154  1.00  0.00     0.208 C 
ATOM      5  C   UNL     1       3.513  -0.739   0.565  1.00  0.00     0.200 C 
ATOM      6  O   UNL     1       1.491   0.644  -0.900  1.00  0.00    -0.463 OA
ATOM      7  C   UNL     1       2.078  -0.936   0.843  1.00  0.00     0.066 A 
ATOM      8  O   UNL     1       4.362  -1.344   1.208  1.00  0.00    -0.288 OA
ATOM      9  C   UNL     1       1.139  -0.234   0.094  1.00  0.00     0.141 A 
ATOM     10  C   UNL     1       1.659  -1.812   1.846  1.00  0.00     0.020 A 
ATOM     11  C   UNL     1      -0.228  -0.402   0.336  1.00  0.00     0.094 A 
ATOM     12  C   UNL     1       0.294  -1.978   2.087  1.00  0.00     0.047 A 
BRANCH   3  13
ATOM     13  C   UNL     1       5.246   0.505  -0.919  1.00  0.00    -0.011 A 
ATOM     14  C   UNL     1       6.128  -0.546  -1.207  1.00  0.00     0.013 A 
ATOM     15  C   UNL     1       7.443  -0.286  -1.598  1.00  0.00     0.047 A 
ATOM     16  C   UNL     1       7.886   1.026  -1.697  1.00  0.00     0.115 A 
ATOM     17  C   UNL     1       5.718   1.825  -1.019  1.00  0.00     0.013 A 
ATOM     18  C   UNL     1       7.035   2.087  -1.409  1.00  0.00     0.047 A 
BRANCH  16  19
ATOM     19  O   UNL     1       9.177   1.235  -2.080  1.00  0.00    -0.508 OA
ATOM     20  H   UNL     1       9.357   2.189  -2.064  1.00  0.00     0.293 HD
ENDBRANCH  16  19
ENDBRANCH   3  13
ENDBRANCH   1   2
BRANCH   1  21
ATOM     21  C   UNL     1      -2.992  -1.073   0.804  1.00  0.00     0.339 C 
ATOM     22  C   UNL     1      -4.281  -1.836   1.178  1.00  0.00     0.214 C 
ATOM     23  O   UNL     1      -3.177   0.340   0.974  1.00  0.00    -0.332 OA
ATOM     24  C   UNL     1      -5.465  -1.285   0.386  1.00  0.00     0.180 C 
ATOM     25  C   UNL     1      -4.227   0.877   0.168  1.00  0.00     0.179 C 
ATOM     26  C   UNL     1      -5.577   0.232   0.521  1.00  0.00     0.177 C 
BRANCH  22  27
ATOM     27  O   UNL     1      -4.166  -3.240   0.893  1.00  0.00    -0.384 OA
ATOM     28  H   UNL     1      -5.061  -3.604   1.051  1.00  0.00     0.211 HD
ENDBRANCH  22  27
BRANCH  24  29
ATOM     29  O   UNL     1      -6.675  -1.911   0.846  1.00  0.00    -0.387 OA
ATOM     30  H   UNL     1      -7.396  -1.403   0.420  1.00  0.00     0.211 HD
ENDBRANCH  24  29
BRANCH  25  31
ATOM     31  C   UNL     1      -4.258   2.396   0.396  1.00  0.00     0.191 C 
BRANCH  31  32
ATOM     32  O   UNL     1      -5.313   3.002  -0.346  1.00  0.00    -0.394 OA
ATOM     33  H   UNL     1      -5.216   3.966  -0.229  1.00  0.00     0.210 HD
ENDBRANCH  31  32
ENDBRANCH  25  31
BRANCH  26  34
ATOM     34  O   UNL     1      -6.637   0.662  -0.342  1.00  0.00    -0.387 OA
ATOM     35  H   UNL     1      -6.516   1.630  -0.470  1.00  0.00     0.211 HD
ENDBRANCH  26  34
ENDBRANCH   1  21
TORSDOF 9
