REMARK SMILES O=c1c(-c2ccc(O)cc2)coc2cc(O)ccc12
REMARK SMILES IDX 3 1 11 2 12 3 13 4 19 5 2 6 1 7 18 8 17 9 15 10 14 11 4 12
REMARK SMILES IDX 5 13 6 14 7 15 10 16 9 17 8 18 16 20
REMARK H PARENT 8 19 16 21
ROOT
ATOM      1  C   UNL     1      -0.408  -0.279  -0.121  1.00  0.00     0.065 C 
ATOM      2  C   UNL     1       0.136  -1.505  -0.057  1.00  0.00     0.208 C 
ATOM      3  O   UNL     1       1.474  -1.813  -0.007  1.00  0.00    -0.463 OA
ATOM      4  C   UNL     1       2.367  -0.773  -0.010  1.00  0.00     0.141 A 
ATOM      5  C   UNL     1       1.969   0.561  -0.062  1.00  0.00     0.066 A 
ATOM      6  C   UNL     1       0.530   0.879  -0.117  1.00  0.00     0.200 C 
ATOM      7  O   UNL     1       0.150   2.043  -0.161  1.00  0.00    -0.288 OA
ATOM      8  C   UNL     1       2.926   1.582  -0.063  1.00  0.00     0.020 A 
ATOM      9  C   UNL     1       4.282   1.256  -0.010  1.00  0.00     0.047 A 
ATOM     10  C   UNL     1       4.669  -0.080   0.042  1.00  0.00     0.119 A 
ATOM     11  C   UNL     1       3.723  -1.101   0.042  1.00  0.00     0.094 A 
ENDROOT
BRANCH   1  12
ATOM     12  C   UNL     1      -1.873  -0.110  -0.156  1.00  0.00    -0.011 A 
ATOM     13  C   UNL     1      -2.658  -0.803  -1.093  1.00  0.00     0.013 A 
ATOM     14  C   UNL     1      -4.048  -0.648  -1.116  1.00  0.00     0.047 A 
ATOM     15  C   UNL     1      -4.656   0.204  -0.202  1.00  0.00     0.115 A 
ATOM     16  C   UNL     1      -2.510   0.750   0.750  1.00  0.00     0.013 A 
ATOM     17  C   UNL     1      -3.899   0.904   0.728  1.00  0.00     0.047 A 
BRANCH  15  18
ATOM     18  O   UNL     1      -6.007   0.385  -0.188  1.00  0.00    -0.508 OA
ATOM     19  H   UNL     1      -6.397  -0.130  -0.912  1.00  0.00     0.293 HD
ENDBRANCH  15  18
ENDBRANCH   1  12
BRANCH  10  20
ATOM     20  O   UNL     1       6.005  -0.348   0.092  1.00  0.00    -0.508 OA
ATOM     21  H   UNL     1       6.135  -1.310   0.129  1.00  0.00     0.293 HD
ENDBRANCH  10  20
TORSDOF 3
