REMARK SMILES O=c1c(-c2ccc(O)cc2)coc2cc(O[C@@H]3O[C@H](CO)[C@@H](O)[C@H](O)[C@H]3O)ccc12
REMARK SMILES IDX 16 1 15 2 3 3 11 4 2 5 12 6 30 7 1 8 13 9 29 10 14 11 28 12
REMARK SMILES IDX 4 13 5 14 6 15 7 16 10 17 9 18 8 19 17 21 26 22 18 23 24 24
REMARK SMILES IDX 19 25 22 26 27 27 25 29 20 31 21 32 23 34
REMARK H PARENT 8 20 27 28 25 30 21 33 23 35
ROOT
ATOM      1  O   UNL     1      -2.020  -1.346  -0.492  1.00  0.00    -0.462 OA
ENDROOT
BRANCH   1   2
ATOM      2  C   UNL     1      -0.805  -0.742  -0.330  1.00  0.00     0.126 A 
ATOM      3  C   UNL     1       4.261  -0.316   0.153  1.00  0.00     0.065 C 
ATOM      4  C   UNL     1       3.882  -1.593  -0.014  1.00  0.00     0.208 C 
ATOM      5  C   UNL     1       3.185   0.715   0.147  1.00  0.00     0.200 C 
ATOM      6  O   UNL     1       2.599  -2.059  -0.173  1.00  0.00    -0.463 OA
ATOM      7  C   UNL     1       1.804   0.224  -0.014  1.00  0.00     0.066 A 
ATOM      8  O   UNL     1       3.408   1.913   0.270  1.00  0.00    -0.288 OA
ATOM      9  C   UNL     1       1.583  -1.139  -0.166  1.00  0.00     0.141 A 
ATOM     10  C   UNL     1       0.724   1.111  -0.012  1.00  0.00     0.020 A 
ATOM     11  C   UNL     1       0.283  -1.622  -0.322  1.00  0.00     0.094 A 
ATOM     12  C   UNL     1      -0.579   0.626  -0.167  1.00  0.00     0.047 A 
BRANCH   3  13
ATOM     13  C   UNL     1       5.687   0.030   0.296  1.00  0.00    -0.011 A 
ATOM     14  C   UNL     1       6.496  -0.619   1.245  1.00  0.00     0.013 A 
ATOM     15  C   UNL     1       7.851  -0.296   1.372  1.00  0.00     0.047 A 
ATOM     16  C   UNL     1       8.400   0.682   0.550  1.00  0.00     0.115 A 
ATOM     17  C   UNL     1       6.264   1.018  -0.515  1.00  0.00     0.013 A 
ATOM     18  C   UNL     1       7.618   1.341  -0.390  1.00  0.00     0.047 A 
BRANCH  16  19
ATOM     19  O   UNL     1       9.715   1.029   0.638  1.00  0.00    -0.508 OA
ATOM     20  H   UNL     1      10.123   0.521   1.358  1.00  0.00     0.293 HD
ENDBRANCH  16  19
ENDBRANCH   3  13
ENDBRANCH   1   2
BRANCH   1  21
ATOM     21  C   UNL     1      -3.172  -0.508  -0.675  1.00  0.00     0.339 C 
ATOM     22  C   UNL     1      -4.303  -1.440  -1.158  1.00  0.00     0.214 C 
ATOM     23  O   UNL     1      -3.551   0.129   0.549  1.00  0.00    -0.332 OA
ATOM     24  C   UNL     1      -5.602  -0.650  -1.299  1.00  0.00     0.180 C 
ATOM     25  C   UNL     1      -4.712   0.956   0.399  1.00  0.00     0.179 C 
ATOM     26  C   UNL     1      -5.922   0.098  -0.005  1.00  0.00     0.177 C 
BRANCH  22  27
ATOM     27  O   UNL     1      -3.999  -2.040  -2.428  1.00  0.00    -0.384 OA
ATOM     28  H   UNL     1      -3.129  -2.473  -2.321  1.00  0.00     0.211 HD
ENDBRANCH  22  27
BRANCH  24  29
ATOM     29  O   UNL     1      -6.694  -1.529  -1.610  1.00  0.00    -0.387 OA
ATOM     30  H   UNL     1      -6.370  -2.091  -2.344  1.00  0.00     0.211 HD
ENDBRANCH  24  29
BRANCH  25  31
ATOM     31  C   UNL     1      -4.975   1.698   1.716  1.00  0.00     0.191 C 
BRANCH  31  32
ATOM     32  O   UNL     1      -5.984   2.692   1.572  1.00  0.00    -0.394 OA
ATOM     33  H   UNL     1      -6.715   2.286   1.057  1.00  0.00     0.210 HD
ENDBRANCH  31  32
ENDBRANCH  25  31
BRANCH  26  34
ATOM     34  O   UNL     1      -7.091   0.903  -0.191  1.00  0.00    -0.387 OA
ATOM     35  H   UNL     1      -7.737   0.311  -0.633  1.00  0.00     0.211 HD
ENDBRANCH  26  34
ENDBRANCH   1  21
TORSDOF 9
