REMARK SMILES O=c1c(-c2ccc(O)cc2)coc2cc(O[C@@H]3O[C@H](CO)[C@@H](O)[C@H](O)[C@H]3O)ccc12
REMARK SMILES IDX 16 1 15 2 3 3 11 4 2 5 12 6 30 7 1 8 13 9 29 10 14 11 28 12
REMARK SMILES IDX 4 13 5 14 6 15 7 16 10 17 9 18 8 19 17 21 26 22 18 23 24 24
REMARK SMILES IDX 19 25 22 26 27 27 25 29 20 31 21 32 23 34
REMARK H PARENT 8 20 27 28 25 30 21 33 23 35
ROOT
ATOM      1  O   UNL     1      -2.097  -0.843   0.691  1.00  0.00    -0.462 OA
ENDROOT
BRANCH   1   2
ATOM      2  C   UNL     1      -0.840  -0.484   0.291  1.00  0.00     0.126 A 
ATOM      3  C   UNL     1       4.253  -0.600  -0.056  1.00  0.00     0.065 C 
ATOM      4  C   UNL     1       3.786  -1.556   0.763  1.00  0.00     0.208 C 
ATOM      5  C   UNL     1       3.245   0.309  -0.675  1.00  0.00     0.200 C 
ATOM      6  O   UNL     1       2.473  -1.803   1.082  1.00  0.00    -0.463 OA
ATOM      7  C   UNL     1       1.832   0.046  -0.349  1.00  0.00     0.066 A 
ATOM      8  O   UNL     1       3.551   1.234  -1.419  1.00  0.00    -0.288 OA
ATOM      9  C   UNL     1       1.519  -0.998   0.514  1.00  0.00     0.141 A 
ATOM     10  C   UNL     1       0.814   0.834  -0.892  1.00  0.00     0.020 A 
ATOM     11  C   UNL     1       0.187  -1.261   0.836  1.00  0.00     0.094 A 
ATOM     12  C   UNL     1      -0.521   0.569  -0.569  1.00  0.00     0.047 A 
BRANCH   3  13
ATOM     13  C   UNL     1       5.703  -0.454  -0.291  1.00  0.00    -0.011 A 
ATOM     14  C   UNL     1       6.319   0.802  -0.179  1.00  0.00     0.013 A 
ATOM     15  C   UNL     1       7.693   0.949  -0.395  1.00  0.00     0.047 A 
ATOM     16  C   UNL     1       8.456  -0.164  -0.726  1.00  0.00     0.115 A 
ATOM     17  C   UNL     1       6.496  -1.561  -0.634  1.00  0.00     0.013 A 
ATOM     18  C   UNL     1       7.869  -1.416  -0.848  1.00  0.00     0.047 A 
BRANCH  16  19
ATOM     19  O   UNL     1       9.798  -0.067  -0.947  1.00  0.00    -0.508 OA
ATOM     20  H   UNL     1      10.056   0.866  -0.866  1.00  0.00     0.293 HD
ENDBRANCH  16  19
ENDBRANCH   3  13
ENDBRANCH   1   2
BRANCH   1  21
ATOM     21  C   UNL     1      -3.216  -0.268  -0.005  1.00  0.00     0.339 C 
ATOM     22  C   UNL     1      -4.453  -1.116   0.337  1.00  0.00     0.214 C 
ATOM     23  O   UNL     1      -3.408   1.077   0.443  1.00  0.00    -0.332 OA
ATOM     24  C   UNL     1      -5.688  -0.585  -0.405  1.00  0.00     0.180 C 
ATOM     25  C   UNL     1      -4.642   1.712   0.075  1.00  0.00     0.179 C 
ATOM     26  C   UNL     1      -5.564   0.884  -0.836  1.00  0.00     0.177 C 
BRANCH  22  27
ATOM     27  O   UNL     1      -4.281  -2.504  -0.005  1.00  0.00    -0.384 OA
ATOM     28  H   UNL     1      -5.095  -2.955   0.286  1.00  0.00     0.211 HD
ENDBRANCH  22  27
BRANCH  24  29
ATOM     29  O   UNL     1      -6.855  -0.789   0.406  1.00  0.00    -0.387 OA
ATOM     30  H   UNL     1      -6.738  -0.219   1.200  1.00  0.00     0.211 HD
ENDBRANCH  24  29
BRANCH  25  31
ATOM     31  C   UNL     1      -5.340   2.177   1.364  1.00  0.00     0.191 C 
BRANCH  31  32
ATOM     32  O   UNL     1      -5.952   1.090   2.062  1.00  0.00    -0.394 OA
ATOM     33  H   UNL     1      -6.092   1.402   2.977  1.00  0.00     0.210 HD
ENDBRANCH  31  32
ENDBRANCH  25  31
BRANCH  26  34
ATOM     34  O   UNL     1      -5.009   0.929  -2.164  1.00  0.00    -0.387 OA
ATOM     35  H   UNL     1      -5.662   0.525  -2.766  1.00  0.00     0.211 HD
ENDBRANCH  26  34
ENDBRANCH   1  21
TORSDOF 9
