REMARK SMILES O=c1c(-c2ccc(O)cc2)coc2cc(O)ccc12
REMARK SMILES IDX 3 1 11 2 12 3 13 4 19 5 2 6 1 7 18 8 17 9 15 10 14 11 4 12
REMARK SMILES IDX 5 13 6 14 7 15 10 16 9 17 8 18 16 20
REMARK H PARENT 8 19 16 21
ROOT
ATOM      1  C   UNL     1       0.442  -0.244   0.286  1.00  0.00     0.065 C 
ATOM      2  C   UNL     1      -0.015  -1.351   0.893  1.00  0.00     0.208 C 
ATOM      3  O   UNL     1      -1.325  -1.750   1.004  1.00  0.00    -0.463 OA
ATOM      4  C   UNL     1      -2.284  -0.953   0.436  1.00  0.00     0.141 A 
ATOM      5  C   UNL     1      -1.980   0.226  -0.241  1.00  0.00     0.066 A 
ATOM      6  C   UNL     1      -0.570   0.644  -0.354  1.00  0.00     0.200 C 
ATOM      7  O   UNL     1      -0.273   1.674  -0.947  1.00  0.00    -0.288 OA
ATOM      8  C   UNL     1      -3.001   1.001  -0.804  1.00  0.00     0.020 A 
ATOM      9  C   UNL     1      -4.330   0.590  -0.686  1.00  0.00     0.047 A 
ATOM     10  C   UNL     1      -4.622  -0.591  -0.007  1.00  0.00     0.119 A 
ATOM     11  C   UNL     1      -3.611  -1.366   0.555  1.00  0.00     0.094 A 
ENDROOT
BRANCH   1  12
ATOM     12  C   UNL     1       1.888   0.042   0.238  1.00  0.00    -0.011 A 
ATOM     13  C   UNL     1       2.515   0.335  -0.981  1.00  0.00     0.013 A 
ATOM     14  C   UNL     1       3.887   0.595  -1.033  1.00  0.00     0.047 A 
ATOM     15  C   UNL     1       4.637   0.570   0.135  1.00  0.00     0.115 A 
ATOM     16  C   UNL     1       2.666   0.029   1.408  1.00  0.00     0.013 A 
ATOM     17  C   UNL     1       4.039   0.291   1.358  1.00  0.00     0.047 A 
BRANCH  15  18
ATOM     18  O   UNL     1       5.972   0.831   0.039  1.00  0.00    -0.508 OA
ATOM     19  H   UNL     1       6.357   0.813   0.930  1.00  0.00     0.293 HD
ENDBRANCH  15  18
ENDBRANCH   1  12
BRANCH  10  20
ATOM     20  O   UNL     1      -5.905  -1.030   0.132  1.00  0.00    -0.508 OA
ATOM     21  H   UNL     1      -6.503  -0.400  -0.305  1.00  0.00     0.293 HD
ENDBRANCH  10  20
TORSDOF 3
