REMARK SMILES Oc1cc(O)c2c(c1)O[C@H](c1ccc(O)c(O)c1)[C@H](O)C2
REMARK SMILES IDX 21 1 19 2 10 3 9 4 7 5 8 6 2 7 3 8 4 9 6 10 20 11 11 13
REMARK SMILES IDX 18 14 12 15 16 16 13 17 14 18 17 19 15 21 5 23 1 25
REMARK H PARENT 20 12 17 20 15 22 5 24 1 26
ROOT
ATOM      1  C   UNL     1      -1.151   1.809  -0.378  1.00  0.00     0.079 C 
ATOM      2  C   UNL     1      -0.192   1.805  -1.564  1.00  0.00     0.164 C 
ATOM      3  C   UNL     1       0.686   0.531  -1.519  1.00  0.00     0.232 C 
ATOM      4  O   UNL     1      -0.170  -0.627  -1.692  1.00  0.00    -0.482 OA
ATOM      5  C   UNL     1      -1.293  -0.655  -0.901  1.00  0.00     0.131 A 
ATOM      6  C   UNL     1      -1.927  -1.896  -0.802  1.00  0.00     0.093 A 
ATOM      7  C   UNL     1      -3.064  -2.021  -0.011  1.00  0.00     0.122 A 
ATOM      8  C   UNL     1      -3.577  -0.930   0.679  1.00  0.00     0.092 A 
ATOM      9  C   UNL     1      -2.947   0.307   0.560  1.00  0.00     0.126 A 
ATOM     10  C   UNL     1      -1.810   0.467  -0.240  1.00  0.00     0.039 A 
ENDROOT
BRANCH   2  11
ATOM     11  O   UNL     1       0.556   3.017  -1.645  1.00  0.00    -0.389 OA
ATOM     12  H   UNL     1      -0.083   3.751  -1.679  1.00  0.00     0.211 HD
ENDBRANCH   2  11
BRANCH   3  13
ATOM     13  C   UNL     1       1.648   0.313  -0.343  1.00  0.00    -0.001 A 
ATOM     14  C   UNL     1       2.028  -0.997   0.019  1.00  0.00     0.057 A 
ATOM     15  C   UNL     1       2.237   1.385   0.354  1.00  0.00     0.012 A 
ATOM     16  C   UNL     1       2.923  -1.209   1.064  1.00  0.00     0.157 A 
ATOM     17  C   UNL     1       3.137   1.164   1.403  1.00  0.00     0.050 A 
ATOM     18  C   UNL     1       3.469  -0.133   1.752  1.00  0.00     0.157 A 
BRANCH  16  19
ATOM     19  O   UNL     1       3.299  -2.467   1.448  1.00  0.00    -0.504 OA
ATOM     20  H   UNL     1       2.822  -3.104   0.890  1.00  0.00     0.293 HD
ENDBRANCH  16  19
BRANCH  18  21
ATOM     21  O   UNL     1       4.347  -0.349   2.774  1.00  0.00    -0.504 OA
ATOM     22  H   UNL     1       4.423  -1.322   2.826  1.00  0.00     0.293 HD
ENDBRANCH  18  21
ENDBRANCH   3  13
BRANCH   9  23
ATOM     23  O   UNL     1      -3.440   1.397   1.223  1.00  0.00    -0.507 OA
ATOM     24  H   UNL     1      -4.193   1.113   1.769  1.00  0.00     0.293 HD
ENDBRANCH   9  23
BRANCH   7  25
ATOM     25  O   UNL     1      -3.712  -3.214   0.118  1.00  0.00    -0.508 OA
ATOM     26  H   UNL     1      -3.258  -3.877  -0.429  1.00  0.00     0.293 HD
ENDBRANCH   7  25
TORSDOF 6
