REMARK SMILES Oc1cc(O)c2c(c1)O[C@H](c1ccc(O)c(O)c1)[C@H](O)C2
REMARK SMILES IDX 21 1 19 2 10 3 9 4 7 5 8 6 2 7 3 8 4 9 6 10 20 11 11 13
REMARK SMILES IDX 18 14 12 15 16 16 13 17 14 18 17 19 15 21 5 23 1 25
REMARK H PARENT 20 12 17 20 15 22 5 24 1 26
ROOT
ATOM      1  C   UNL     1       1.452  -1.906  -0.563  1.00  0.00     0.079 C 
ATOM      2  C   UNL     1      -0.036  -1.616  -0.380  1.00  0.00     0.164 C 
ATOM      3  C   UNL     1      -0.296  -0.130  -0.701  1.00  0.00     0.232 C 
ATOM      4  O   UNL     1       0.426   0.749   0.176  1.00  0.00    -0.482 OA
ATOM      5  C   UNL     1       1.758   0.453   0.300  1.00  0.00     0.131 A 
ATOM      6  C   UNL     1       2.556   1.475   0.818  1.00  0.00     0.093 A 
ATOM      7  C   UNL     1       3.922   1.268   0.968  1.00  0.00     0.122 A 
ATOM      8  C   UNL     1       4.503   0.058   0.610  1.00  0.00     0.092 A 
ATOM      9  C   UNL     1       3.695  -0.961   0.108  1.00  0.00     0.126 A 
ATOM     10  C   UNL     1       2.313  -0.787  -0.038  1.00  0.00     0.039 A 
ENDROOT
BRANCH   2  11
ATOM     11  O   UNL     1      -0.413  -1.967   0.962  1.00  0.00    -0.389 OA
ATOM     12  H   UNL     1      -1.368  -1.801   1.047  1.00  0.00     0.211 HD
ENDBRANCH   2  11
BRANCH   3  13
ATOM     13  C   UNL     1      -1.782   0.203  -0.636  1.00  0.00    -0.001 A 
ATOM     14  C   UNL     1      -2.364   0.740   0.527  1.00  0.00     0.057 A 
ATOM     15  C   UNL     1      -2.604  -0.061  -1.750  1.00  0.00     0.012 A 
ATOM     16  C   UNL     1      -3.729   1.006   0.558  1.00  0.00     0.157 A 
ATOM     17  C   UNL     1      -3.974   0.208  -1.707  1.00  0.00     0.050 A 
ATOM     18  C   UNL     1      -4.524   0.739  -0.552  1.00  0.00     0.157 A 
BRANCH  16  19
ATOM     19  O   UNL     1      -4.337   1.530   1.666  1.00  0.00    -0.504 OA
ATOM     20  H   UNL     1      -3.651   1.693   2.337  1.00  0.00     0.293 HD
ENDBRANCH  16  19
BRANCH  18  21
ATOM     21  O   UNL     1      -5.863   1.000  -0.510  1.00  0.00    -0.504 OA
ATOM     22  H   UNL     1      -6.013   1.366   0.384  1.00  0.00     0.293 HD
ENDBRANCH  18  21
ENDBRANCH   3  13
BRANCH   9  23
ATOM     23  O   UNL     1       4.248  -2.157  -0.257  1.00  0.00    -0.507 OA
ATOM     24  H   UNL     1       5.195  -2.140  -0.039  1.00  0.00     0.293 HD
ENDBRANCH   9  23
BRANCH   7  25
ATOM     25  O   UNL     1       4.740   2.242   1.461  1.00  0.00    -0.508 OA
ATOM     26  H   UNL     1       4.198   3.019   1.679  1.00  0.00     0.293 HD
ENDBRANCH   7  25
TORSDOF 6
