REMARK SMILES Oc1cc(O)c2c(c1)O[C@H](c1ccc(O)c(O)c1)[C@H](O)C2
REMARK SMILES IDX 21 1 19 2 10 3 9 4 7 5 8 6 2 7 3 8 4 9 6 10 20 11 11 13
REMARK SMILES IDX 18 14 12 15 16 16 13 17 14 18 17 19 15 21 5 23 1 25
REMARK H PARENT 20 12 17 20 15 22 5 24 1 26
ROOT
ATOM      1  C   UNL     1       1.403  -1.062  -1.697  1.00  0.00     0.079 C 
ATOM      2  C   UNL     1      -0.082  -0.830  -1.412  1.00  0.00     0.164 C 
ATOM      3  C   UNL     1      -0.216   0.408  -0.507  1.00  0.00     0.232 C 
ATOM      4  O   UNL     1       0.404   0.162   0.766  1.00  0.00    -0.482 OA
ATOM      5  C   UNL     1       1.712  -0.247   0.675  1.00  0.00     0.131 A 
ATOM      6  C   UNL     1       2.474  -0.066   1.831  1.00  0.00     0.093 A 
ATOM      7  C   UNL     1       3.808  -0.451   1.834  1.00  0.00     0.122 A 
ATOM      8  C   UNL     1       4.383  -1.016   0.705  1.00  0.00     0.092 A 
ATOM      9  C   UNL     1       3.612  -1.212  -0.440  1.00  0.00     0.126 A 
ATOM     10  C   UNL     1       2.258  -0.847  -0.473  1.00  0.00     0.039 A 
ENDROOT
BRANCH   2  11
ATOM     11  O   UNL     1      -0.619  -2.014  -0.800  1.00  0.00    -0.389 OA
ATOM     12  H   UNL     1      -0.247  -2.062   0.101  1.00  0.00     0.211 HD
ENDBRANCH   2  11
BRANCH   3  13
ATOM     13  C   UNL     1      -1.663   0.820  -0.291  1.00  0.00    -0.001 A 
ATOM     14  C   UNL     1      -2.479   0.172   0.652  1.00  0.00     0.057 A 
ATOM     15  C   UNL     1      -2.216   1.860  -1.058  1.00  0.00     0.012 A 
ATOM     16  C   UNL     1      -3.807   0.563   0.822  1.00  0.00     0.157 A 
ATOM     17  C   UNL     1      -3.546   2.252  -0.883  1.00  0.00     0.050 A 
ATOM     18  C   UNL     1      -4.338   1.602   0.059  1.00  0.00     0.157 A 
BRANCH  16  19
ATOM     19  O   UNL     1      -4.600  -0.068   1.739  1.00  0.00    -0.504 OA
ATOM     20  H   UNL     1      -4.101  -0.798   2.136  1.00  0.00     0.293 HD
ENDBRANCH  16  19
BRANCH  18  21
ATOM     21  O   UNL     1      -5.641   1.972   0.243  1.00  0.00    -0.504 OA
ATOM     22  H   UNL     1      -5.851   2.701  -0.360  1.00  0.00     0.293 HD
ENDBRANCH  18  21
ENDBRANCH   3  13
BRANCH   9  23
ATOM     23  O   UNL     1       4.261  -1.773  -1.504  1.00  0.00    -0.507 OA
ATOM     24  H   UNL     1       3.649  -1.904  -2.244  1.00  0.00     0.293 HD
ENDBRANCH   9  23
BRANCH   7  25
ATOM     25  O   UNL     1       4.594  -0.283   2.936  1.00  0.00    -0.508 OA
ATOM     26  H   UNL     1       4.064   0.121   3.642  1.00  0.00     0.293 HD
ENDBRANCH   7  25
TORSDOF 6
