REMARK SMILES COc1ccc(-c2coc3cc(O)ccc3c2=O)cc1
REMARK SMILES IDX 7 1 8 2 9 3 10 4 16 5 17 6 18 7 15 8 14 9 12 10 11 11 6 12
REMARK SMILES IDX 3 13 4 14 20 15 5 16 19 17 2 18 1 19 13 20
REMARK H PARENT 13 21
ROOT
ATOM      1  C   UNL     1      -0.264  -0.003  -0.228  1.00  0.00     0.065 C 
ATOM      2  C   UNL     1      -0.763   0.416  -1.402  1.00  0.00     0.208 C 
ATOM      3  O   UNL     1      -2.089   0.519  -1.747  1.00  0.00    -0.463 OA
ATOM      4  C   UNL     1      -3.021   0.152  -0.811  1.00  0.00     0.141 A 
ATOM      5  C   UNL     1      -2.672  -0.315   0.455  1.00  0.00     0.066 A 
ATOM      6  C   UNL     1      -1.246  -0.421   0.813  1.00  0.00     0.200 C 
ATOM      7  O   UNL     1      -0.909  -0.833   1.917  1.00  0.00    -0.288 OA
ATOM      8  C   UNL     1      -3.667  -0.677   1.371  1.00  0.00     0.020 A 
ATOM      9  C   UNL     1      -5.010  -0.567   1.009  1.00  0.00     0.047 A 
ATOM     10  C   UNL     1      -5.348  -0.100  -0.258  1.00  0.00     0.119 A 
ATOM     11  C   UNL     1      -4.364   0.262  -1.175  1.00  0.00     0.094 A 
ENDROOT
BRANCH   1  12
ATOM     12  C   UNL     1       1.193  -0.071  -0.014  1.00  0.00    -0.011 A 
ATOM     13  C   UNL     1       3.986  -0.212   0.381  1.00  0.00     0.118 A 
ATOM     14  C   UNL     1       3.171  -1.310   0.661  1.00  0.00     0.047 A 
ATOM     15  C   UNL     1       3.403   0.962  -0.093  1.00  0.00     0.047 A 
ATOM     16  C   UNL     1       1.788  -1.242   0.469  1.00  0.00     0.013 A 
ATOM     17  C   UNL     1       2.017   1.032  -0.287  1.00  0.00     0.013 A 
BRANCH  13  18
ATOM     18  O   UNL     1       5.319  -0.414   0.612  1.00  0.00    -0.497 OA
ATOM     19  C   UNL     1       6.185   0.690   0.386  1.00  0.00     0.278 C 
ENDBRANCH  13  18
ENDBRANCH   1  12
BRANCH  10  20
ATOM     20  O   UNL     1      -6.673  -0.011  -0.566  1.00  0.00    -0.508 OA
ATOM     21  H   UNL     1      -6.767   0.323  -1.473  1.00  0.00     0.293 HD
ENDBRANCH  10  20
TORSDOF 3
