REMARK SMILES COc1ccc(-c2coc3cc(O)ccc3c2=O)cc1
REMARK SMILES IDX 7 1 8 2 9 3 10 4 16 5 17 6 18 7 15 8 14 9 12 10 11 11 6 12
REMARK SMILES IDX 3 13 4 14 20 15 5 16 19 17 2 18 1 19 13 20
REMARK H PARENT 13 21
ROOT
ATOM      1  C   UNL     1       0.265   0.502   0.276  1.00  0.00     0.065 C 
ATOM      2  C   UNL     1       0.874   1.646   0.626  1.00  0.00     0.208 C 
ATOM      3  O   UNL     1       2.226   1.885   0.668  1.00  0.00    -0.463 OA
ATOM      4  C   UNL     1       3.064   0.859   0.316  1.00  0.00     0.141 A 
ATOM      5  C   UNL     1       2.598  -0.391  -0.084  1.00  0.00     0.066 A 
ATOM      6  C   UNL     1       1.144  -0.632  -0.133  1.00  0.00     0.200 C 
ATOM      7  O   UNL     1       0.707  -1.718  -0.495  1.00  0.00    -0.288 OA
ATOM      8  C   UNL     1       3.501  -1.402  -0.435  1.00  0.00     0.020 A 
ATOM      9  C   UNL     1       4.874  -1.155  -0.382  1.00  0.00     0.047 A 
ATOM     10  C   UNL     1       5.328   0.099   0.019  1.00  0.00     0.119 A 
ATOM     11  C   UNL     1       4.435   1.108   0.368  1.00  0.00     0.094 A 
ENDROOT
BRANCH   1  12
ATOM     12  C   UNL     1      -1.207   0.404   0.271  1.00  0.00    -0.011 A 
ATOM     13  C   UNL     1      -4.026   0.220   0.242  1.00  0.00     0.118 A 
ATOM     14  C   UNL     1      -3.283  -0.204  -0.858  1.00  0.00     0.047 A 
ATOM     15  C   UNL     1      -3.359   0.732   1.356  1.00  0.00     0.047 A 
ATOM     16  C   UNL     1      -1.885  -0.113  -0.841  1.00  0.00     0.013 A 
ATOM     17  C   UNL     1      -1.964   0.822   1.375  1.00  0.00     0.013 A 
BRANCH  13  18
ATOM     18  O   UNL     1      -5.389   0.187   0.355  1.00  0.00    -0.497 OA
ATOM     19  C   UNL     1      -6.110  -0.366  -0.738  1.00  0.00     0.278 C 
ENDBRANCH  13  18
ENDBRANCH   1  12
BRANCH  10  20
ATOM     20  O   UNL     1       6.660   0.383   0.084  1.00  0.00    -0.508 OA
ATOM     21  H   UNL     1       7.164  -0.404  -0.182  1.00  0.00     0.293 HD
ENDBRANCH  10  20
TORSDOF 3
