REMARK SMILES COc1ccc(-c2coc3cc(O)ccc3c2=O)cc1
REMARK SMILES IDX 7 1 8 2 9 3 10 4 16 5 17 6 18 7 15 8 14 9 12 10 11 11 6 12
REMARK SMILES IDX 3 13 4 14 20 15 5 16 19 17 2 18 1 19 13 20
REMARK H PARENT 13 21
ROOT
ATOM      1  C   UNL     1      -0.274  -0.038   0.420  1.00  0.00     0.065 C 
ATOM      2  C   UNL     1      -0.902   0.239   1.574  1.00  0.00     0.208 C 
ATOM      3  O   UNL     1      -2.258   0.254   1.795  1.00  0.00    -0.463 OA
ATOM      4  C   UNL     1      -3.079  -0.038   0.736  1.00  0.00     0.141 A 
ATOM      5  C   UNL     1      -2.591  -0.336  -0.535  1.00  0.00     0.066 A 
ATOM      6  C   UNL     1      -1.133  -0.343  -0.760  1.00  0.00     0.200 C 
ATOM      7  O   UNL     1      -0.677  -0.590  -1.870  1.00  0.00    -0.288 OA
ATOM      8  C   UNL     1      -3.476  -0.625  -1.579  1.00  0.00     0.020 A 
ATOM      9  C   UNL     1      -4.851  -0.611  -1.341  1.00  0.00     0.047 A 
ATOM     10  C   UNL     1      -5.328  -0.312  -0.068  1.00  0.00     0.119 A 
ATOM     11  C   UNL     1      -4.454  -0.024   0.976  1.00  0.00     0.094 A 
ENDROOT
BRANCH   1  12
ATOM     12  C   UNL     1       1.199  -0.001   0.339  1.00  0.00    -0.011 A 
ATOM     13  C   UNL     1       4.018   0.087   0.175  1.00  0.00     0.118 A 
ATOM     14  C   UNL     1       3.238   0.748  -0.771  1.00  0.00     0.047 A 
ATOM     15  C   UNL     1       3.388  -0.621   1.199  1.00  0.00     0.047 A 
ATOM     16  C   UNL     1       1.840   0.703  -0.689  1.00  0.00     0.013 A 
ATOM     17  C   UNL     1       1.993  -0.669   1.282  1.00  0.00     0.013 A 
BRANCH  13  18
ATOM     18  O   UNL     1       5.385   0.052   0.212  1.00  0.00    -0.497 OA
ATOM     19  C   UNL     1       6.071   0.718  -0.841  1.00  0.00     0.278 C 
ENDBRANCH  13  18
ENDBRANCH   1  12
BRANCH  10  20
ATOM     20  O   UNL     1      -6.679  -0.311   0.115  1.00  0.00    -0.508 OA
ATOM     21  H   UNL     1      -6.874  -0.090   1.041  1.00  0.00     0.293 HD
ENDBRANCH  10  20
TORSDOF 3
