REMARK SMILES O=c1c(-c2ccc(O)cc2)coc2cc(O[C@@H]3O[C@H](CO)[C@@H](O)[C@H](O)[C@H]3O)cc(O)c12
REMARK SMILES IDX 16 1 15 2 3 3 11 4 2 5 12 6 31 7 1 8 13 9 29 10 14 11 28 12
REMARK SMILES IDX 4 13 5 14 6 15 7 16 10 17 9 18 8 19 30 21 17 23 26 24 18 25
REMARK SMILES IDX 24 26 19 27 22 28 27 29 25 31 20 33 21 34 23 36
REMARK H PARENT 8 20 30 22 27 30 25 32 21 35 23 37
ROOT
ATOM      1  O   UNL     1      -2.140  -1.295   0.384  1.00  0.00    -0.462 OA
ENDROOT
BRANCH   1   2
ATOM      2  C   UNL     1      -0.889  -0.781   0.187  1.00  0.00     0.130 A 
ATOM      3  C   UNL     1       4.217  -0.576   0.196  1.00  0.00     0.065 C 
ATOM      4  C   UNL     1       3.763  -1.748   0.666  1.00  0.00     0.208 C 
ATOM      5  C   UNL     1       3.193   0.412  -0.241  1.00  0.00     0.204 C 
ATOM      6  O   UNL     1       2.450  -2.128   0.803  1.00  0.00    -0.463 OA
ATOM      7  C   UNL     1       1.781   0.021  -0.101  1.00  0.00     0.107 A 
ATOM      8  O   UNL     1       3.474   1.516  -0.699  1.00  0.00    -0.288 OA
ATOM      9  C   UNL     1       1.483  -1.234   0.417  1.00  0.00     0.145 A 
ATOM     10  C   UNL     1       0.741   0.879  -0.470  1.00  0.00     0.134 A 
ATOM     11  C   UNL     1       0.154  -1.634   0.562  1.00  0.00     0.094 A 
ATOM     12  C   UNL     1      -0.590   0.483  -0.324  1.00  0.00     0.093 A 
BRANCH   3  13
ATOM     13  C   UNL     1       5.663  -0.313   0.096  1.00  0.00    -0.011 A 
ATOM     14  C   UNL     1       6.223   0.130  -1.111  1.00  0.00     0.013 A 
ATOM     15  C   UNL     1       7.595   0.371  -1.213  1.00  0.00     0.047 A 
ATOM     16  C   UNL     1       8.414   0.176  -0.108  1.00  0.00     0.115 A 
ATOM     17  C   UNL     1       6.509  -0.499   1.202  1.00  0.00     0.013 A 
ATOM     18  C   UNL     1       7.883  -0.256   1.102  1.00  0.00     0.047 A 
BRANCH  16  19
ATOM     19  O   UNL     1       9.746   0.424  -0.252  1.00  0.00    -0.508 OA
ATOM     20  H   UNL     1      10.185   0.276   0.601  1.00  0.00     0.293 HD
ENDBRANCH  16  19
ENDBRANCH   3  13
BRANCH  10  21
ATOM     21  O   UNL     1       0.954   2.132  -0.982  1.00  0.00    -0.507 OA
ATOM     22  H   UNL     1       1.926   2.283  -1.023  1.00  0.00     0.293 HD
ENDBRANCH  10  21
ENDBRANCH   1   2
BRANCH   1  23
ATOM     23  C   UNL     1      -3.256  -0.583  -0.173  1.00  0.00     0.339 C 
ATOM     24  C   UNL     1      -4.466  -1.541  -0.152  1.00  0.00     0.214 C 
ATOM     25  O   UNL     1      -3.541   0.577   0.613  1.00  0.00    -0.332 OA
ATOM     26  C   UNL     1      -5.724  -0.803  -0.610  1.00  0.00     0.180 C 
ATOM     27  C   UNL     1      -4.649   1.343   0.120  1.00  0.00     0.179 C 
ATOM     28  C   UNL     1      -5.937   0.511   0.142  1.00  0.00     0.177 C 
BRANCH  24  29
ATOM     29  O   UNL     1      -4.264  -2.669  -1.020  1.00  0.00    -0.384 OA
ATOM     30  H   UNL     1      -5.136  -3.099  -1.119  1.00  0.00     0.211 HD
ENDBRANCH  24  29
BRANCH  26  31
ATOM     31  O   UNL     1      -6.877  -1.653  -0.446  1.00  0.00    -0.387 OA
ATOM     32  H   UNL     1      -6.982  -1.836   0.507  1.00  0.00     0.211 HD
ENDBRANCH  26  31
BRANCH  27  33
ATOM     33  C   UNL     1      -4.779   2.609   0.981  1.00  0.00     0.191 C 
BRANCH  33  34
ATOM     34  O   UNL     1      -5.158   2.286   2.320  1.00  0.00    -0.394 OA
ATOM     35  H   UNL     1      -5.098   3.110   2.834  1.00  0.00     0.210 HD
ENDBRANCH  33  34
ENDBRANCH  27  33
BRANCH  28  36
ATOM     36  O   UNL     1      -7.011   1.226  -0.479  1.00  0.00    -0.387 OA
ATOM     37  H   UNL     1      -7.732   0.580  -0.611  1.00  0.00     0.211 HD
ENDBRANCH  28  36
ENDBRANCH   1  23
TORSDOF 10
