REMARK SMILES O=c1c(-c2ccc(O)cc2)coc2cc(O[C@@H]3O[C@H](CO)[C@@H](O)[C@H](O)[C@H]3O)cc(O)c12
REMARK SMILES IDX 16 1 15 2 3 3 11 4 2 5 12 6 31 7 1 8 13 9 29 10 14 11 28 12
REMARK SMILES IDX 4 13 5 14 6 15 7 16 10 17 9 18 8 19 30 21 17 23 26 24 18 25
REMARK SMILES IDX 24 26 19 27 22 28 27 29 25 31 20 33 21 34 23 36
REMARK H PARENT 8 20 30 22 27 30 25 32 21 35 23 37
ROOT
ATOM      1  O   UNL     1      -2.307   1.609   0.073  1.00  0.00    -0.462 OA
ENDROOT
BRANCH   1   2
ATOM      2  C   UNL     1      -0.957   1.397   0.073  1.00  0.00     0.130 A 
ATOM      3  C   UNL     1       3.880  -0.240   0.118  1.00  0.00     0.065 C 
ATOM      4  C   UNL     1       3.006  -1.256   0.186  1.00  0.00     0.208 C 
ATOM      5  C   UNL     1       3.310   1.131   0.024  1.00  0.00     0.204 C 
ATOM      6  O   UNL     1       1.636  -1.164   0.195  1.00  0.00    -0.463 OA
ATOM      7  C   UNL     1       1.842   1.249   0.039  1.00  0.00     0.107 A 
ATOM      8  O   UNL     1       4.000   2.143  -0.059  1.00  0.00    -0.288 OA
ATOM      9  C   UNL     1       1.078   0.088   0.125  1.00  0.00     0.145 A 
ATOM     10  C   UNL     1       1.205   2.489  -0.035  1.00  0.00     0.134 A 
ATOM     11  C   UNL     1      -0.319   0.158   0.140  1.00  0.00     0.094 A 
ATOM     12  C   UNL     1      -0.186   2.561  -0.019  1.00  0.00     0.093 A 
BRANCH   3  13
ATOM     13  C   UNL     1       5.331  -0.495   0.105  1.00  0.00    -0.011 A 
ATOM     14  C   UNL     1       5.934  -1.286   1.097  1.00  0.00     0.013 A 
ATOM     15  C   UNL     1       7.311  -1.533   1.077  1.00  0.00     0.047 A 
ATOM     16  C   UNL     1       8.088  -0.987   0.062  1.00  0.00     0.115 A 
ATOM     17  C   UNL     1       6.139   0.050  -0.904  1.00  0.00     0.013 A 
ATOM     18  C   UNL     1       7.514  -0.198  -0.926  1.00  0.00     0.047 A 
BRANCH  16  19
ATOM     19  O   UNL     1       9.433  -1.202   0.002  1.00  0.00    -0.508 OA
ATOM     20  H   UNL     1       9.699  -1.730   0.772  1.00  0.00     0.293 HD
ENDBRANCH  16  19
ENDBRANCH   3  13
BRANCH  10  21
ATOM     21  O   UNL     1       1.884   3.674  -0.124  1.00  0.00    -0.507 OA
ATOM     22  H   UNL     1       2.848   3.475  -0.118  1.00  0.00     0.293 HD
ENDBRANCH  10  21
ENDBRANCH   1   2
BRANCH   1  23
ATOM     23  C   UNL     1      -3.175   0.490   0.329  1.00  0.00     0.339 C 
ATOM     24  C   UNL     1      -4.568   1.058   0.649  1.00  0.00     0.214 C 
ATOM     25  O   UNL     1      -3.213  -0.345  -0.836  1.00  0.00    -0.332 OA
ATOM     26  C   UNL     1      -5.558  -0.079   0.947  1.00  0.00     0.180 C 
ATOM     27  C   UNL     1      -4.299  -1.277  -0.941  1.00  0.00     0.179 C 
ATOM     28  C   UNL     1      -5.147  -1.425   0.332  1.00  0.00     0.177 C 
BRANCH  24  29
ATOM     29  O   UNL     1      -4.549   1.954   1.775  1.00  0.00    -0.384 OA
ATOM     30  H   UNL     1      -5.471   2.242   1.906  1.00  0.00     0.211 HD
ENDBRANCH  24  29
BRANCH  26  31
ATOM     31  O   UNL     1      -6.870   0.313   0.508  1.00  0.00    -0.387 OA
ATOM     32  H   UNL     1      -6.810   0.419  -0.467  1.00  0.00     0.211 HD
ENDBRANCH  26  31
BRANCH  27  33
ATOM     33  C   UNL     1      -5.123  -0.937  -2.195  1.00  0.00     0.191 C 
BRANCH  33  34
ATOM     34  O   UNL     1      -5.984   0.183  -1.992  1.00  0.00    -0.394 OA
ATOM     35  H   UNL     1      -6.214   0.516  -2.881  1.00  0.00     0.210 HD
ENDBRANCH  33  34
ENDBRANCH  27  33
BRANCH  28  36
ATOM     36  O   UNL     1      -4.358  -2.129   1.311  1.00  0.00    -0.387 OA
ATOM     37  H   UNL     1      -4.294  -3.059   1.030  1.00  0.00     0.211 HD
ENDBRANCH  28  36
ENDBRANCH   1  23
TORSDOF 10
