REMARK SMILES O=c1c(-c2ccc(O)cc2)coc2cc(O[C@@H]3O[C@H](CO)[C@@H](O)[C@H](O)[C@H]3O)cc(O)c12
REMARK SMILES IDX 16 1 15 2 3 3 11 4 2 5 12 6 31 7 1 8 13 9 29 10 14 11 28 12
REMARK SMILES IDX 4 13 5 14 6 15 7 16 10 17 9 18 8 19 30 21 17 23 26 24 18 25
REMARK SMILES IDX 24 26 19 27 22 28 27 29 25 31 20 33 21 34 23 36
REMARK H PARENT 8 20 30 22 27 30 25 32 21 35 23 37
ROOT
ATOM      1  O   UNL     1      -2.291  -0.031   1.719  1.00  0.00    -0.462 OA
ENDROOT
BRANCH   1   2
ATOM      2  C   UNL     1      -1.002   0.018   1.266  1.00  0.00     0.130 A 
ATOM      3  C   UNL     1       3.547  -0.394  -1.022  1.00  0.00     0.065 C 
ATOM      4  C   UNL     1       2.658  -1.276  -1.506  1.00  0.00     0.208 C 
ATOM      5  C   UNL     1       3.065   0.523   0.047  1.00  0.00     0.204 C 
ATOM      6  O   UNL     1       1.353  -1.435  -1.108  1.00  0.00    -0.463 OA
ATOM      7  C   UNL     1       1.668   0.367   0.485  1.00  0.00     0.107 A 
ATOM      8  O   UNL     1       3.770   1.382   0.568  1.00  0.00    -0.288 OA
ATOM      9  C   UNL     1       0.881  -0.610  -0.118  1.00  0.00     0.145 A 
ATOM     10  C   UNL     1       1.116   1.175   1.481  1.00  0.00     0.134 A 
ATOM     11  C   UNL     1      -0.452  -0.787   0.267  1.00  0.00     0.094 A 
ATOM     12  C   UNL     1      -0.212   1.004   1.866  1.00  0.00     0.093 A 
BRANCH   3  13
ATOM     13  C   UNL     1       4.919  -0.331  -1.560  1.00  0.00    -0.011 A 
ATOM     14  C   UNL     1       5.700  -1.491  -1.682  1.00  0.00     0.013 A 
ATOM     15  C   UNL     1       6.997  -1.425  -2.198  1.00  0.00     0.047 A 
ATOM     16  C   UNL     1       7.521  -0.200  -2.589  1.00  0.00     0.115 A 
ATOM     17  C   UNL     1       5.472   0.896  -1.957  1.00  0.00     0.013 A 
ATOM     18  C   UNL     1       6.770   0.964  -2.472  1.00  0.00     0.047 A 
BRANCH  16  19
ATOM     19  O   UNL     1       8.791  -0.181  -3.084  1.00  0.00    -0.508 OA
ATOM     20  H   UNL     1       9.031   0.739  -3.284  1.00  0.00     0.293 HD
ENDBRANCH  16  19
ENDBRANCH   3  13
BRANCH  10  21
ATOM     21  O   UNL     1       1.821   2.158   2.122  1.00  0.00    -0.507 OA
ATOM     22  H   UNL     1       2.735   2.168   1.757  1.00  0.00     0.293 HD
ENDBRANCH  10  21
ENDBRANCH   1   2
BRANCH   1  23
ATOM     23  C   UNL     1      -3.099  -1.147   1.337  1.00  0.00     0.339 C 
ATOM     24  C   UNL     1      -4.273  -1.286   2.340  1.00  0.00     0.214 C 
ATOM     25  O   UNL     1      -3.594  -1.035  -0.003  1.00  0.00    -0.332 OA
ATOM     26  C   UNL     1      -5.510  -0.491   1.900  1.00  0.00     0.180 C 
ATOM     27  C   UNL     1      -4.432   0.121  -0.247  1.00  0.00     0.179 C 
ATOM     28  C   UNL     1      -5.120   0.681   1.007  1.00  0.00     0.177 C 
BRANCH  24  29
ATOM     29  O   UNL     1      -4.677  -2.662   2.490  1.00  0.00    -0.384 OA
ATOM     30  H   UNL     1      -4.831  -3.026   1.598  1.00  0.00     0.211 HD
ENDBRANCH  24  29
BRANCH  26  31
ATOM     31  O   UNL     1      -6.229   0.000   3.042  1.00  0.00    -0.387 OA
ATOM     32  H   UNL     1      -6.412  -0.777   3.606  1.00  0.00     0.211 HD
ENDBRANCH  26  31
BRANCH  27  33
ATOM     33  C   UNL     1      -3.630   1.201  -0.987  1.00  0.00     0.191 C 
BRANCH  33  34
ATOM     34  O   UNL     1      -3.036   0.645  -2.162  1.00  0.00    -0.394 OA
ATOM     35  H   UNL     1      -2.696  -0.231  -1.903  1.00  0.00     0.210 HD
ENDBRANCH  33  34
ENDBRANCH  27  33
BRANCH  28  36
ATOM     36  O   UNL     1      -6.289   1.422   0.647  1.00  0.00    -0.387 OA
ATOM     37  H   UNL     1      -6.789   1.533   1.482  1.00  0.00     0.211 HD
ENDBRANCH  28  36
ENDBRANCH   1  23
TORSDOF 10
