REMARK SMILES O=c1c(O[C@@H]2O[C@H](CO)[C@H](O)[C@H](O)[C@H]2O)c(-c2ccc(O)c(O)c2)oc2cc(O)cc(O)c12
REMARK SMILES IDX 4 1 3 2 16 3 25 4 2 5 26 6 1 7 33 8 27 9 31 10 28 11 30 12
REMARK SMILES IDX 17 13 18 14 19 15 20 16 24 17 22 18 21 19 23 21 32 23 29 25
REMARK SMILES IDX 5 27 14 28 6 29 12 30 7 31 10 32 15 33 13 35 8 37 9 38 11 40
REMARK H PARENT 21 20 23 22 32 24 29 26 15 34 13 36 9 39 11 41
ROOT
ATOM      1  O   UNL     1      -0.709  -0.161  -0.325  1.00  0.00    -0.454 OA
ENDROOT
BRANCH   1   2
ATOM      2  C   UNL     1       0.486  -0.861  -0.259  1.00  0.00     0.214 C 
ATOM      3  C   UNL     1       1.474  -0.501   0.582  1.00  0.00     0.180 C 
ATOM      4  O   UNL     1       2.692  -1.143   0.711  1.00  0.00    -0.452 OA
ATOM      5  C   UNL     1       0.693  -2.101  -1.062  1.00  0.00     0.239 C 
ATOM      6  C   UNL     1       2.924  -2.264  -0.040  1.00  0.00     0.146 A 
ATOM      7  O   UNL     1      -0.167  -2.554  -1.814  1.00  0.00    -0.285 OA
ATOM      8  C   UNL     1       1.985  -2.788  -0.924  1.00  0.00     0.111 A 
ATOM      9  C   UNL     1       4.166  -2.883   0.121  1.00  0.00     0.094 A 
ATOM     10  C   UNL     1       2.288  -3.943  -1.654  1.00  0.00     0.134 A 
ATOM     11  C   UNL     1       4.455  -4.029  -0.614  1.00  0.00     0.123 A 
ATOM     12  C   UNL     1       3.525  -4.563  -1.501  1.00  0.00     0.093 A 
BRANCH   3  13
ATOM     13  C   UNL     1       1.346   0.657   1.477  1.00  0.00     0.025 A 
ATOM     14  C   UNL     1       2.031   1.850   1.191  1.00  0.00     0.016 A 
ATOM     15  C   UNL     1       1.907   2.961   2.033  1.00  0.00     0.051 A 
ATOM     16  C   UNL     1       1.102   2.867   3.162  1.00  0.00     0.157 A 
ATOM     17  C   UNL     1       0.547   0.575   2.625  1.00  0.00     0.062 A 
ATOM     18  C   UNL     1       0.435   1.680   3.456  1.00  0.00     0.158 A 
BRANCH  16  19
ATOM     19  O   UNL     1       0.932   3.919   4.018  1.00  0.00    -0.504 OA
ATOM     20  H   UNL     1       1.331   4.707   3.611  1.00  0.00     0.293 HD
ENDBRANCH  16  19
BRANCH  18  21
ATOM     21  O   UNL     1      -0.350   1.597   4.570  1.00  0.00    -0.504 OA
ATOM     22  H   UNL     1      -0.309   2.492   4.963  1.00  0.00     0.293 HD
ENDBRANCH  18  21
ENDBRANCH   3  13
BRANCH  10  23
ATOM     23  O   UNL     1       1.415  -4.520  -2.537  1.00  0.00    -0.507 OA
ATOM     24  H   UNL     1       0.578  -4.006  -2.526  1.00  0.00     0.293 HD
ENDBRANCH  10  23
BRANCH  11  25
ATOM     25  O   UNL     1       5.653  -4.667  -0.492  1.00  0.00    -0.508 OA
ATOM     26  H   UNL     1       6.200  -4.204   0.165  1.00  0.00     0.293 HD
ENDBRANCH  11  25
ENDBRANCH   1   2
BRANCH   1  27
ATOM     27  C   UNL     1      -1.171   0.135  -1.647  1.00  0.00     0.339 C 
ATOM     28  C   UNL     1      -2.544  -0.530  -1.902  1.00  0.00     0.214 C 
ATOM     29  O   UNL     1      -1.195   1.546  -1.894  1.00  0.00    -0.332 OA
ATOM     30  C   UNL     1      -3.673   0.194  -1.166  1.00  0.00     0.180 C 
ATOM     31  C   UNL     1      -2.196   2.292  -1.196  1.00  0.00     0.179 C 
ATOM     32  C   UNL     1      -3.612   1.711  -1.381  1.00  0.00     0.177 C 
BRANCH  28  33
ATOM     33  O   UNL     1      -2.857  -0.541  -3.303  1.00  0.00    -0.384 OA
ATOM     34  H   UNL     1      -2.176  -1.080  -3.747  1.00  0.00     0.211 HD
ENDBRANCH  28  33
BRANCH  30  35
ATOM     35  O   UNL     1      -3.667  -0.066   0.245  1.00  0.00    -0.387 OA
ATOM     36  H   UNL     1      -3.756  -1.028   0.369  1.00  0.00     0.211 HD
ENDBRANCH  30  35
BRANCH  31  37
ATOM     37  C   UNL     1      -1.807   2.584   0.264  1.00  0.00     0.191 C 
BRANCH  37  38
ATOM     38  O   UNL     1      -2.546   3.686   0.794  1.00  0.00    -0.394 OA
ATOM     39  H   UNL     1      -3.477   3.555   0.519  1.00  0.00     0.210 HD
ENDBRANCH  37  38
ENDBRANCH  31  37
BRANCH  32  40
ATOM     40  O   UNL     1      -4.553   2.353  -0.502  1.00  0.00    -0.387 OA
ATOM     41  H   UNL     1      -4.664   1.729   0.248  1.00  0.00     0.211 HD
ENDBRANCH  32  40
ENDBRANCH   1  27
TORSDOF 12
