REMARK SMILES O=c1c(O[C@@H]2O[C@H](CO)[C@H](O)[C@H](O)[C@H]2O)c(-c2ccc(O)c(O)c2)oc2cc(O)cc(O)c12
REMARK SMILES IDX 4 1 3 2 16 3 25 4 2 5 26 6 1 7 33 8 27 9 31 10 28 11 30 12
REMARK SMILES IDX 17 13 18 14 19 15 20 16 24 17 22 18 21 19 23 21 32 23 29 25
REMARK SMILES IDX 5 27 14 28 6 29 12 30 7 31 10 32 15 33 13 35 8 37 9 38 11 40
REMARK H PARENT 21 20 23 22 32 24 29 26 15 34 13 36 9 39 11 41
ROOT
ATOM      1  O   UNL     1       0.716   0.335   0.323  1.00  0.00    -0.454 OA
ENDROOT
BRANCH   1   2
ATOM      2  C   UNL     1      -0.583   0.824   0.287  1.00  0.00     0.214 C 
ATOM      3  C   UNL     1      -1.547   0.337   1.091  1.00  0.00     0.180 C 
ATOM      4  O   UNL     1      -2.853   0.794   1.108  1.00  0.00    -0.452 OA
ATOM      5  C   UNL     1      -0.927   1.963  -0.623  1.00  0.00     0.239 C 
ATOM      6  C   UNL     1      -3.215   1.812   0.268  1.00  0.00     0.146 A 
ATOM      7  O   UNL     1      -0.064   2.461  -1.340  1.00  0.00    -0.285 OA
ATOM      8  C   UNL     1      -2.330   2.433  -0.611  1.00  0.00     0.111 A 
ATOM      9  C   UNL     1      -4.551   2.211   0.331  1.00  0.00     0.094 A 
ATOM     10  C   UNL     1      -2.802   3.464  -1.438  1.00  0.00     0.134 A 
ATOM     11  C   UNL     1      -5.003   3.234  -0.492  1.00  0.00     0.123 A 
ATOM     12  C   UNL     1      -4.141   3.868  -1.380  1.00  0.00     0.093 A 
BRANCH   3  13
ATOM     13  C   UNL     1      -1.328  -0.784   2.034  1.00  0.00     0.025 A 
ATOM     14  C   UNL     1      -2.265  -1.835   2.087  1.00  0.00     0.016 A 
ATOM     15  C   UNL     1      -2.105  -2.898   2.980  1.00  0.00     0.051 A 
ATOM     16  C   UNL     1      -1.007  -2.912   3.823  1.00  0.00     0.157 A 
ATOM     17  C   UNL     1      -0.228  -0.815   2.908  1.00  0.00     0.062 A 
ATOM     18  C   UNL     1      -0.072  -1.882   3.788  1.00  0.00     0.158 A 
BRANCH  16  19
ATOM     19  O   UNL     1      -0.847  -3.950   4.695  1.00  0.00    -0.504 OA
ATOM     20  H   UNL     1      -0.015  -3.746   5.166  1.00  0.00     0.293 HD
ENDBRANCH  16  19
BRANCH  18  21
ATOM     21  O   UNL     1       0.993  -1.963   4.644  1.00  0.00    -0.504 OA
ATOM     22  H   UNL     1       1.607  -1.240   4.427  1.00  0.00     0.293 HD
ENDBRANCH  18  21
ENDBRANCH   3  13
BRANCH  10  23
ATOM     23  O   UNL     1      -1.967   4.090  -2.320  1.00  0.00    -0.507 OA
ATOM     24  H   UNL     1      -2.438   4.783  -2.808  1.00  0.00     0.293 HD
ENDBRANCH  10  23
BRANCH  11  25
ATOM     25  O   UNL     1      -6.315   3.588  -0.395  1.00  0.00    -0.508 OA
ATOM     26  H   UNL     1      -6.507   4.308  -1.019  1.00  0.00     0.293 HD
ENDBRANCH  11  25
ENDBRANCH   1   2
BRANCH   1  27
ATOM     27  C   UNL     1       1.253  -0.020  -0.961  1.00  0.00     0.339 C 
ATOM     28  C   UNL     1       2.406   0.963  -1.309  1.00  0.00     0.214 C 
ATOM     29  O   UNL     1       1.694  -1.383  -0.899  1.00  0.00    -0.332 OA
ATOM     30  C   UNL     1       3.773   0.277  -1.338  1.00  0.00     0.180 C 
ATOM     31  C   UNL     1       2.405  -1.757  -2.086  1.00  0.00     0.179 C 
ATOM     32  C   UNL     1       3.756  -1.013  -2.176  1.00  0.00     0.177 C 
BRANCH  28  33
ATOM     33  O   UNL     1       2.167   1.565  -2.592  1.00  0.00    -0.384 OA
ATOM     34  H   UNL     1       1.361   2.120  -2.466  1.00  0.00     0.211 HD
ENDBRANCH  28  33
BRANCH  30  35
ATOM     35  O   UNL     1       4.223  -0.044  -0.005  1.00  0.00    -0.387 OA
ATOM     36  H   UNL     1       4.331   0.800   0.468  1.00  0.00     0.211 HD
ENDBRANCH  30  35
BRANCH  31  37
ATOM     37  C   UNL     1       2.543  -3.283  -2.107  1.00  0.00     0.191 C 
BRANCH  37  38
ATOM     38  O   UNL     1       3.340  -3.728  -3.198  1.00  0.00    -0.394 OA
ATOM     39  H   UNL     1       4.247  -3.412  -2.998  1.00  0.00     0.210 HD
ENDBRANCH  37  38
ENDBRANCH  31  37
BRANCH  32  40
ATOM     40  O   UNL     1       4.854  -1.843  -1.751  1.00  0.00    -0.387 OA
ATOM     41  H   UNL     1       4.943  -1.650  -0.791  1.00  0.00     0.211 HD
ENDBRANCH  32  40
ENDBRANCH   1  27
TORSDOF 12
