REMARK SMILES O=c1c(O[C@@H]2O[C@H](CO)[C@H](O)[C@H](O)[C@H]2O)c(-c2ccc(O)c(O)c2)oc2cc(O)cc(O)c12
REMARK SMILES IDX 4 1 3 2 16 3 25 4 2 5 26 6 1 7 33 8 27 9 31 10 28 11 30 12
REMARK SMILES IDX 17 13 18 14 19 15 20 16 24 17 22 18 21 19 23 21 32 23 29 25
REMARK SMILES IDX 5 27 14 28 6 29 12 30 7 31 10 32 15 33 13 35 8 37 9 38 11 40
REMARK H PARENT 21 20 23 22 32 24 29 26 15 34 13 36 9 39 11 41
ROOT
ATOM      1  O   UNL     1      -0.721  -0.063  -0.133  1.00  0.00    -0.454 OA
ENDROOT
BRANCH   1   2
ATOM      2  C   UNL     1       0.519  -0.657  -0.305  1.00  0.00     0.214 C 
ATOM      3  C   UNL     1       1.565  -0.020  -0.868  1.00  0.00     0.180 C 
ATOM      4  O   UNL     1       2.802  -0.585  -1.118  1.00  0.00    -0.452 OA
ATOM      5  C   UNL     1       0.686  -2.098   0.023  1.00  0.00     0.239 C 
ATOM      6  C   UNL     1       3.013  -1.887  -0.747  1.00  0.00     0.146 A 
ATOM      7  O   UNL     1      -0.230  -2.803   0.438  1.00  0.00    -0.285 OA
ATOM      8  C   UNL     1       2.018  -2.682  -0.184  1.00  0.00     0.111 A 
ATOM      9  C   UNL     1       4.292  -2.405  -0.965  1.00  0.00     0.094 A 
ATOM     10  C   UNL     1       2.301  -4.008   0.162  1.00  0.00     0.134 A 
ATOM     11  C   UNL     1       4.560  -3.725  -0.613  1.00  0.00     0.123 A 
ATOM     12  C   UNL     1       3.574  -4.530  -0.051  1.00  0.00     0.093 A 
BRANCH   3  13
ATOM     13  C   UNL     1       1.486   1.388  -1.284  1.00  0.00     0.025 A 
ATOM     14  C   UNL     1       1.496   1.726  -2.647  1.00  0.00     0.016 A 
ATOM     15  C   UNL     1       1.396   3.062  -3.046  1.00  0.00     0.051 A 
ATOM     16  C   UNL     1       1.274   4.051  -2.081  1.00  0.00     0.157 A 
ATOM     17  C   UNL     1       1.397   2.404  -0.323  1.00  0.00     0.062 A 
ATOM     18  C   UNL     1       1.263   3.725  -0.728  1.00  0.00     0.158 A 
BRANCH  16  19
ATOM     19  O   UNL     1       1.154   5.353  -2.470  1.00  0.00    -0.504 OA
ATOM     20  H   UNL     1       1.087   5.854  -1.632  1.00  0.00     0.293 HD
ENDBRANCH  16  19
BRANCH  18  21
ATOM     21  O   UNL     1       1.096   4.733   0.181  1.00  0.00    -0.504 OA
ATOM     22  H   UNL     1       0.883   4.318   1.039  1.00  0.00     0.293 HD
ENDBRANCH  18  21
ENDBRANCH   3  13
BRANCH  10  23
ATOM     23  O   UNL     1       1.373  -4.850   0.714  1.00  0.00    -0.507 OA
ATOM     24  H   UNL     1       0.522  -4.362   0.789  1.00  0.00     0.293 HD
ENDBRANCH  10  23
BRANCH  11  25
ATOM     25  O   UNL     1       5.793  -4.273  -0.806  1.00  0.00    -0.508 OA
ATOM     26  H   UNL     1       6.383  -3.609  -1.200  1.00  0.00     0.293 HD
ENDBRANCH  11  25
ENDBRANCH   1   2
BRANCH   1  27
ATOM     27  C   UNL     1      -0.974   0.303   1.234  1.00  0.00     0.339 C 
ATOM     28  C   UNL     1      -1.667   1.690   1.262  1.00  0.00     0.214 C 
ATOM     29  O   UNL     1      -1.714  -0.695   1.942  1.00  0.00    -0.332 OA
ATOM     30  C   UNL     1      -3.045   1.607   1.921  1.00  0.00     0.180 C 
ATOM     31  C   UNL     1      -3.084  -0.872   1.553  1.00  0.00     0.179 C 
ATOM     32  C   UNL     1      -3.837   0.454   1.319  1.00  0.00     0.177 C 
BRANCH  28  33
ATOM     33  O   UNL     1      -0.884   2.673   1.984  1.00  0.00    -0.384 OA
ATOM     34  H   UNL     1      -1.520   3.400   2.162  1.00  0.00     0.211 HD
ENDBRANCH  28  33
BRANCH  30  35
ATOM     35  O   UNL     1      -3.721   2.857   1.699  1.00  0.00    -0.387 OA
ATOM     36  H   UNL     1      -4.095   2.788   0.796  1.00  0.00     0.211 HD
ENDBRANCH  30  35
BRANCH  31  37
ATOM     37  C   UNL     1      -3.229  -1.900   0.424  1.00  0.00     0.191 C 
BRANCH  37  38
ATOM     38  O   UNL     1      -4.591  -1.996   0.004  1.00  0.00    -0.394 OA
ATOM     39  H   UNL     1      -4.639  -2.778  -0.578  1.00  0.00     0.210 HD
ENDBRANCH  37  38
ENDBRANCH  31  37
BRANCH  32  40
ATOM     40  O   UNL     1      -4.040   0.752  -0.073  1.00  0.00    -0.387 OA
ATOM     41  H   UNL     1      -4.565   0.000  -0.426  1.00  0.00     0.211 HD
ENDBRANCH  32  40
ENDBRANCH   1  27
TORSDOF 12
