REMARK SMILES COC[C@@H]1Cc2cc(OC)c3c(c2[C@H](c2ccc(OC)c(OC)c2)[C@H]1COC)OCO3
REMARK SMILES IDX 4 1 5 2 6 3 7 4 8 5 11 6 12 7 13 8 14 9 25 10 29 11 30 12
REMARK SMILES IDX 31 13 3 14 2 15 1 16 26 17 27 18 28 19 15 20 24 21 16 22
REMARK SMILES IDX 21 23 17 24 18 25 22 26 23 27 19 28 20 29 9 30 10 31
REMARK H PARENT
ROOT
ATOM      1  C   UNL     1      -1.747  -1.899  -0.343  1.00  0.00     0.026 C 
ATOM      2  C   UNL     1      -1.940  -0.948  -1.534  1.00  0.00     0.042 C 
ATOM      3  C   UNL     1      -1.923   0.482  -1.069  1.00  0.00    -0.036 A 
ATOM      4  C   UNL     1      -2.774   1.434  -1.682  1.00  0.00     0.054 A 
ATOM      5  C   UNL     1      -2.782   2.770  -1.270  1.00  0.00     0.165 A 
ATOM      6  C   UNL     1      -1.921   3.116  -0.243  1.00  0.00     0.207 A 
ATOM      7  C   UNL     1      -1.083   2.196   0.348  1.00  0.00     0.173 A 
ATOM      8  C   UNL     1      -1.043   0.865  -0.046  1.00  0.00     0.010 A 
ATOM      9  C   UNL     1      -0.063  -0.111   0.582  1.00  0.00     0.059 C 
ATOM     10  C   UNL     1      -0.392  -1.634   0.371  1.00  0.00     0.033 C 
ATOM     11  O   UNL     1      -0.327   2.752   1.337  1.00  0.00    -0.453 OA
ATOM     12  C   UNL     1      -0.740   4.128   1.263  1.00  0.00     0.468 C 
ATOM     13  O   UNL     1      -1.782   4.360   0.300  1.00  0.00    -0.450 OA
ENDROOT
BRANCH   1  14
ATOM     14  C   UNL     1      -1.862  -3.359  -0.829  1.00  0.00     0.164 C 
BRANCH  14  15
ATOM     15  O   UNL     1      -3.082  -3.608  -1.528  1.00  0.00    -0.384 OA
ATOM     16  C   UNL     1      -4.198  -3.798  -0.667  1.00  0.00     0.194 C 
ENDBRANCH  14  15
ENDBRANCH   1  14
BRANCH  10  17
ATOM     17  C   UNL     1      -0.353  -2.373   1.731  1.00  0.00     0.164 C 
BRANCH  17  18
ATOM     18  O   UNL     1       0.922  -2.207   2.346  1.00  0.00    -0.384 OA
ATOM     19  C   UNL     1       1.000  -2.873   3.599  1.00  0.00     0.194 C 
ENDBRANCH  17  18
ENDBRANCH  10  17
BRANCH   9  20
ATOM     20  C   UNL     1       1.379   0.189   0.151  1.00  0.00    -0.036 A 
ATOM     21  C   UNL     1       2.372   0.387   1.125  1.00  0.00     0.054 A 
ATOM     22  C   UNL     1       1.744   0.266  -1.200  1.00  0.00     0.008 A 
ATOM     23  C   UNL     1       3.699   0.656   0.765  1.00  0.00     0.161 A 
ATOM     24  C   UNL     1       3.063   0.544  -1.570  1.00  0.00     0.051 A 
ATOM     25  C   UNL     1       4.046   0.743  -0.597  1.00  0.00     0.160 A 
BRANCH  23  26
ATOM     26  O   UNL     1       4.720   0.858   1.663  1.00  0.00    -0.493 OA
ATOM     27  C   UNL     1       4.434   0.630   3.035  1.00  0.00     0.278 C 
ENDBRANCH  23  26
BRANCH  25  28
ATOM     28  O   UNL     1       5.364   1.017  -0.870  1.00  0.00    -0.493 OA
ATOM     29  C   UNL     1       5.737   1.161  -2.232  1.00  0.00     0.278 C 
ENDBRANCH  25  28
ENDBRANCH   9  20
BRANCH   5  30
ATOM     30  O   UNL     1      -3.561   3.767  -1.781  1.00  0.00    -0.493 OA
ATOM     31  C   UNL     1      -4.426   3.427  -2.855  1.00  0.00     0.278 C 
ENDBRANCH   5  30
TORSDOF 8
