REMARK SMILES COC[C@@H]1Cc2cc(OC)c3c(c2[C@H](c2ccc(OC)c(OC)c2)[C@H]1COC)OCO3
REMARK SMILES IDX 4 1 5 2 6 3 7 4 8 5 11 6 12 7 13 8 14 9 25 10 29 11 30 12
REMARK SMILES IDX 31 13 3 14 2 15 1 16 26 17 27 18 28 19 15 20 24 21 16 22
REMARK SMILES IDX 21 23 17 24 18 25 22 26 23 27 19 28 20 29 9 30 10 31
REMARK H PARENT
ROOT
ATOM      1  C   UNL     1      -1.914  -1.795   0.041  1.00  0.00     0.026 C 
ATOM      2  C   UNL     1      -2.438  -0.615  -0.797  1.00  0.00     0.042 C 
ATOM      3  C   UNL     1      -2.127   0.716  -0.162  1.00  0.00    -0.036 A 
ATOM      4  C   UNL     1      -2.962   1.822  -0.468  1.00  0.00     0.054 A 
ATOM      5  C   UNL     1      -2.756   3.075   0.115  1.00  0.00     0.165 A 
ATOM      6  C   UNL     1      -1.705   3.183   1.007  1.00  0.00     0.207 A 
ATOM      7  C   UNL     1      -0.881   2.116   1.299  1.00  0.00     0.173 A 
ATOM      8  C   UNL     1      -1.032   0.866   0.707  1.00  0.00     0.010 A 
ATOM      9  C   UNL     1      -0.086  -0.282   1.028  1.00  0.00     0.059 C 
ATOM     10  C   UNL     1      -0.388  -1.612   0.261  1.00  0.00     0.033 C 
ATOM     11  O   UNL     1       0.063   2.446   2.228  1.00  0.00    -0.453 OA
ATOM     12  C   UNL     1      -0.216   3.842   2.433  1.00  0.00     0.468 C 
ATOM     13  O   UNL     1      -1.357   4.308   1.696  1.00  0.00    -0.450 OA
ENDROOT
BRANCH   1  14
ATOM     14  C   UNL     1      -2.284  -3.127  -0.634  1.00  0.00     0.164 C 
BRANCH  14  15
ATOM     15  O   UNL     1      -3.693  -3.164  -0.881  1.00  0.00    -0.384 OA
ATOM     16  C   UNL     1      -4.083  -4.391  -1.486  1.00  0.00     0.194 C 
ENDBRANCH  14  15
ENDBRANCH   1  14
BRANCH  10  17
ATOM     17  C   UNL     1       0.245  -2.805   1.012  1.00  0.00     0.164 C 
BRANCH  17  18
ATOM     18  O   UNL     1       0.416  -3.935   0.152  1.00  0.00    -0.384 OA
ATOM     19  C   UNL     1       1.650  -3.903  -0.558  1.00  0.00     0.194 C 
ENDBRANCH  17  18
ENDBRANCH  10  17
BRANCH   9  20
ATOM     20  C   UNL     1       1.383   0.099   0.805  1.00  0.00    -0.036 A 
ATOM     21  C   UNL     1       1.845   0.512  -0.458  1.00  0.00     0.054 A 
ATOM     22  C   UNL     1       2.296   0.039   1.865  1.00  0.00     0.008 A 
ATOM     23  C   UNL     1       3.189   0.846  -0.662  1.00  0.00     0.161 A 
ATOM     24  C   UNL     1       3.641   0.362   1.669  1.00  0.00     0.051 A 
ATOM     25  C   UNL     1       4.099   0.760   0.410  1.00  0.00     0.160 A 
BRANCH  23  26
ATOM     26  O   UNL     1       3.709   1.246  -1.869  1.00  0.00    -0.493 OA
ATOM     27  C   UNL     1       2.787   1.613  -2.885  1.00  0.00     0.278 C 
ENDBRANCH  23  26
BRANCH  25  28
ATOM     28  O   UNL     1       5.401   1.091   0.125  1.00  0.00    -0.493 OA
ATOM     29  C   UNL     1       6.339   1.045   1.190  1.00  0.00     0.278 C 
ENDBRANCH  25  28
ENDBRANCH   9  20
BRANCH   5  30
ATOM     30  O   UNL     1      -3.498   4.198  -0.101  1.00  0.00    -0.493 OA
ATOM     31  C   UNL     1      -4.590   4.088  -1.003  1.00  0.00     0.278 C 
ENDBRANCH   5  30
TORSDOF 8
