REMARK SMILES COC[C@@H]1Cc2cc(OC)c3c(c2[C@H](c2ccc(OC)c(OC)c2)[C@H]1COC)OCO3
REMARK SMILES IDX 4 1 5 2 6 3 7 4 8 5 11 6 12 7 13 8 14 9 25 10 29 11 30 12
REMARK SMILES IDX 31 13 3 14 2 15 1 16 26 17 27 18 28 19 15 20 24 21 16 22
REMARK SMILES IDX 21 23 17 24 18 25 22 26 23 27 19 28 20 29 9 30 10 31
REMARK H PARENT
ROOT
ATOM      1  C   UNL     1      -1.977  -1.745  -0.171  1.00  0.00     0.026 C 
ATOM      2  C   UNL     1      -2.214  -0.581  -1.144  1.00  0.00     0.042 C 
ATOM      3  C   UNL     1      -2.002   0.734  -0.450  1.00  0.00    -0.036 A 
ATOM      4  C   UNL     1      -2.800   1.851  -0.804  1.00  0.00     0.054 A 
ATOM      5  C   UNL     1      -2.648   3.083  -0.160  1.00  0.00     0.165 A 
ATOM      6  C   UNL     1      -1.687   3.158   0.832  1.00  0.00     0.207 A 
ATOM      7  C   UNL     1      -0.899   2.079   1.170  1.00  0.00     0.173 A 
ATOM      8  C   UNL     1      -1.009   0.847   0.536  1.00  0.00     0.010 A 
ATOM      9  C   UNL     1      -0.079  -0.306   0.889  1.00  0.00     0.059 C 
ATOM     10  C   UNL     1      -0.498  -1.715   0.323  1.00  0.00     0.033 C 
ATOM     11  O   UNL     1      -0.030   2.377   2.178  1.00  0.00    -0.453 OA
ATOM     12  C   UNL     1      -0.324   3.768   2.399  1.00  0.00     0.468 C 
ATOM     13  O   UNL     1      -1.396   4.262   1.580  1.00  0.00    -0.450 OA
ENDROOT
BRANCH   1  14
ATOM     14  C   UNL     1      -2.360  -3.058  -0.882  1.00  0.00     0.164 C 
BRANCH  14  15
ATOM     15  O   UNL     1      -2.542  -4.139   0.029  1.00  0.00    -0.384 OA
ATOM     16  C   UNL     1      -3.840  -4.177   0.609  1.00  0.00     0.194 C 
ENDBRANCH  14  15
ENDBRANCH   1  14
BRANCH  10  17
ATOM     17  C   UNL     1      -0.233  -2.822   1.373  1.00  0.00     0.164 C 
BRANCH  17  18
ATOM     18  O   UNL     1       1.085  -2.776   1.920  1.00  0.00    -0.384 OA
ATOM     19  C   UNL     1       2.047  -3.433   1.103  1.00  0.00     0.194 C 
ENDBRANCH  17  18
ENDBRANCH  10  17
BRANCH   9  20
ATOM     20  C   UNL     1       1.365   0.029   0.487  1.00  0.00    -0.036 A 
ATOM     21  C   UNL     1       1.710   0.301  -0.848  1.00  0.00     0.054 A 
ATOM     22  C   UNL     1       2.370   0.078   1.460  1.00  0.00     0.008 A 
ATOM     23  C   UNL     1       3.030   0.607  -1.206  1.00  0.00     0.161 A 
ATOM     24  C   UNL     1       3.692   0.370   1.112  1.00  0.00     0.051 A 
ATOM     25  C   UNL     1       4.033   0.630  -0.218  1.00  0.00     0.160 A 
BRANCH  23  26
ATOM     26  O   UNL     1       3.436   0.873  -2.491  1.00  0.00    -0.493 OA
ATOM     27  C   UNL     1       2.424   1.175  -3.441  1.00  0.00     0.278 C 
ENDBRANCH  23  26
BRANCH  25  28
ATOM     28  O   UNL     1       5.302   0.923  -0.652  1.00  0.00    -0.493 OA
ATOM     29  C   UNL     1       6.336   0.955   0.321  1.00  0.00     0.278 C 
ENDBRANCH  25  28
ENDBRANCH   9  20
BRANCH   5  30
ATOM     30  O   UNL     1      -3.361   4.218  -0.412  1.00  0.00    -0.493 OA
ATOM     31  C   UNL     1      -4.334   4.157  -1.446  1.00  0.00     0.278 C 
ENDBRANCH   5  30
TORSDOF 8
