REMARK SMILES COc1cc(-c2oc3cc(O)cc(O)c3c(=O)c2O)ccc1O
REMARK SMILES IDX 6 1 18 2 16 3 17 4 15 5 13 6 12 7 10 8 9 9 8 10 7 11 5 12
REMARK SMILES IDX 3 13 22 14 4 15 21 16 20 17 2 18 1 19 23 20 19 22 14 24
REMARK SMILES IDX 11 26
REMARK H PARENT 23 21 19 23 14 25 11 27
ROOT
ATOM      1  C   UNL     1       0.035  -0.777  -0.202  1.00  0.00     0.180 C 
ATOM      2  C   UNL     1       0.736  -1.809  -0.707  1.00  0.00     0.208 C 
ATOM      3  C   UNL     1       2.208  -1.681  -0.809  1.00  0.00     0.238 C 
ATOM      4  O   UNL     1       2.885  -2.600  -1.267  1.00  0.00    -0.285 OA
ATOM      5  C   UNL     1       2.813  -0.430  -0.349  1.00  0.00     0.111 A 
ATOM      6  C   UNL     1       4.194  -0.218  -0.400  1.00  0.00     0.134 A 
ATOM      7  C   UNL     1       4.735   0.986   0.045  1.00  0.00     0.093 A 
ATOM      8  C   UNL     1       3.883   1.970   0.541  1.00  0.00     0.123 A 
ATOM      9  C   UNL     1       2.507   1.768   0.596  1.00  0.00     0.094 A 
ATOM     10  C   UNL     1       1.971   0.561   0.148  1.00  0.00     0.146 A 
ATOM     11  O   UNL     1       0.610   0.416   0.223  1.00  0.00    -0.452 OA
ENDROOT
BRANCH   1  12
ATOM     12  C   UNL     1      -1.438  -0.786  -0.066  1.00  0.00     0.025 A 
ATOM     13  C   UNL     1      -3.576   0.363  -0.354  1.00  0.00     0.161 A 
ATOM     14  C   UNL     1      -4.222  -0.738   0.223  1.00  0.00     0.157 A 
ATOM     15  C   UNL     1      -2.183   0.330  -0.491  1.00  0.00     0.062 A 
ATOM     16  C   UNL     1      -3.502  -1.848   0.658  1.00  0.00     0.051 A 
ATOM     17  C   UNL     1      -2.113  -1.867   0.517  1.00  0.00     0.016 A 
BRANCH  13  18
ATOM     18  O   UNL     1      -4.380   1.402  -0.743  1.00  0.00    -0.493 OA
ATOM     19  C   UNL     1      -3.754   2.538  -1.321  1.00  0.00     0.278 C 
ENDBRANCH  13  18
BRANCH  14  20
ATOM     20  O   UNL     1      -5.585  -0.717   0.361  1.00  0.00    -0.504 OA
ATOM     21  H   UNL     1      -5.877  -1.552   0.756  1.00  0.00     0.293 HD
ENDBRANCH  14  20
ENDBRANCH   1  12
BRANCH   2  22
ATOM     22  O   UNL     1       0.173  -2.988  -1.159  1.00  0.00    -0.502 OA
ATOM     23  H   UNL     1       0.924  -3.524  -1.492  1.00  0.00     0.293 HD
ENDBRANCH   2  22
BRANCH   6  24
ATOM     24  O   UNL     1       5.076  -1.149  -0.878  1.00  0.00    -0.507 OA
ATOM     25  H   UNL     1       4.569  -1.943  -1.160  1.00  0.00     0.293 HD
ENDBRANCH   6  24
BRANCH   8  26
ATOM     26  O   UNL     1       4.365   3.164   0.988  1.00  0.00    -0.508 OA
ATOM     27  H   UNL     1       5.333   3.168   0.898  1.00  0.00     0.293 HD
ENDBRANCH   8  26
TORSDOF 6
