REMARK SMILES COc1cc(-c2oc3cc(O)cc(O)c3c(=O)c2O)ccc1O
REMARK SMILES IDX 6 1 18 2 16 3 17 4 15 5 13 6 12 7 10 8 9 9 8 10 7 11 5 12
REMARK SMILES IDX 3 13 22 14 4 15 21 16 20 17 2 18 1 19 23 20 19 22 14 24
REMARK SMILES IDX 11 26
REMARK H PARENT 23 21 19 23 14 25 11 27
ROOT
ATOM      1  C   UNL     1      -0.027  -0.704  -0.371  1.00  0.00     0.180 C 
ATOM      2  C   UNL     1      -0.866  -1.424  -1.139  1.00  0.00     0.208 C 
ATOM      3  C   UNL     1      -2.279  -1.553  -0.713  1.00  0.00     0.238 C 
ATOM      4  O   UNL     1      -3.078  -2.199  -1.387  1.00  0.00    -0.285 OA
ATOM      5  C   UNL     1      -2.675  -0.886   0.528  1.00  0.00     0.111 A 
ATOM      6  C   UNL     1      -3.985  -0.955   1.014  1.00  0.00     0.134 A 
ATOM      7  C   UNL     1      -4.328  -0.306   2.198  1.00  0.00     0.093 A 
ATOM      8  C   UNL     1      -3.352   0.410   2.886  1.00  0.00     0.123 A 
ATOM      9  C   UNL     1      -2.045   0.484   2.410  1.00  0.00     0.094 A 
ATOM     10  C   UNL     1      -1.708  -0.168   1.225  1.00  0.00     0.146 A 
ATOM     11  O   UNL     1      -0.408  -0.059   0.800  1.00  0.00    -0.452 OA
ENDROOT
BRANCH   1  12
ATOM     12  C   UNL     1       1.400  -0.498  -0.702  1.00  0.00     0.025 A 
ATOM     13  C   UNL     1       3.300   1.014  -0.912  1.00  0.00     0.161 A 
ATOM     14  C   UNL     1       4.100  -0.079  -1.262  1.00  0.00     0.157 A 
ATOM     15  C   UNL     1       1.950   0.797  -0.630  1.00  0.00     0.062 A 
ATOM     16  C   UNL     1       3.583  -1.364  -1.332  1.00  0.00     0.051 A 
ATOM     17  C   UNL     1       2.233  -1.573  -1.048  1.00  0.00     0.016 A 
BRANCH  13  18
ATOM     18  O   UNL     1       3.951   2.221  -0.881  1.00  0.00    -0.493 OA
ATOM     19  C   UNL     1       3.172   3.357  -0.526  1.00  0.00     0.278 C 
ENDBRANCH  13  18
BRANCH  14  20
ATOM     20  O   UNL     1       5.427   0.101  -1.543  1.00  0.00    -0.504 OA
ATOM     21  H   UNL     1       5.578   1.060  -1.438  1.00  0.00     0.293 HD
ENDBRANCH  14  20
ENDBRANCH   1  12
BRANCH   2  22
ATOM     22  O   UNL     1      -0.504  -2.044  -2.320  1.00  0.00    -0.502 OA
ATOM     23  H   UNL     1      -1.323  -2.464  -2.657  1.00  0.00     0.293 HD
ENDBRANCH   2  22
BRANCH   6  24
ATOM     24  O   UNL     1      -4.983  -1.641   0.377  1.00  0.00    -0.507 OA
ATOM     25  H   UNL     1      -4.612  -2.048  -0.438  1.00  0.00     0.293 HD
ENDBRANCH   6  24
BRANCH   8  26
ATOM     26  O   UNL     1      -3.639   1.062   4.049  1.00  0.00    -0.508 OA
ATOM     27  H   UNL     1      -4.575   0.918   4.268  1.00  0.00     0.293 HD
ENDBRANCH   8  26
TORSDOF 6
