REMARK SMILES COc1cc(-c2oc3cc(O)cc(O)c3c(=O)c2O)ccc1O
REMARK SMILES IDX 6 1 18 2 16 3 17 4 15 5 13 6 12 7 10 8 9 9 8 10 7 11 5 12
REMARK SMILES IDX 3 13 22 14 4 15 21 16 20 17 2 18 1 19 23 20 19 22 14 24
REMARK SMILES IDX 11 26
REMARK H PARENT 23 21 19 23 14 25 11 27
ROOT
ATOM      1  C   UNL     1       0.009   0.122  -0.252  1.00  0.00     0.180 C 
ATOM      2  C   UNL     1       0.283   1.438  -0.233  1.00  0.00     0.208 C 
ATOM      3  C   UNL     1       1.690   1.884  -0.063  1.00  0.00     0.238 C 
ATOM      4  O   UNL     1       1.905   3.092  -0.055  1.00  0.00    -0.285 OA
ATOM      5  C   UNL     1       2.715   0.831   0.080  1.00  0.00     0.111 A 
ATOM      6  C   UNL     1       4.079   1.104   0.254  1.00  0.00     0.134 A 
ATOM      7  C   UNL     1       5.001   0.061   0.382  1.00  0.00     0.093 A 
ATOM      8  C   UNL     1       4.551  -1.255   0.335  1.00  0.00     0.123 A 
ATOM      9  C   UNL     1       3.203  -1.541   0.163  1.00  0.00     0.094 A 
ATOM     10  C   UNL     1       2.286  -0.497   0.036  1.00  0.00     0.146 A 
ATOM     11  O   UNL     1       0.975  -0.865  -0.131  1.00  0.00    -0.452 OA
ENDROOT
BRANCH   1  12
ATOM     12  C   UNL     1      -1.355  -0.424  -0.429  1.00  0.00     0.025 A 
ATOM     13  C   UNL     1      -3.725  -0.468   0.138  1.00  0.00     0.161 A 
ATOM     14  C   UNL     1      -3.897  -1.528  -0.758  1.00  0.00     0.157 A 
ATOM     15  C   UNL     1      -2.449   0.074   0.304  1.00  0.00     0.062 A 
ATOM     16  C   UNL     1      -2.833  -2.045  -1.484  1.00  0.00     0.051 A 
ATOM     17  C   UNL     1      -1.563  -1.493  -1.317  1.00  0.00     0.016 A 
BRANCH  13  18
ATOM     18  O   UNL     1      -4.867  -0.066   0.784  1.00  0.00    -0.493 OA
ATOM     19  C   UNL     1      -4.750   1.074   1.627  1.00  0.00     0.278 C 
ENDBRANCH  13  18
BRANCH  14  20
ATOM     20  O   UNL     1      -5.134  -2.085  -0.938  1.00  0.00    -0.504 OA
ATOM     21  H   UNL     1      -5.723  -1.579  -0.345  1.00  0.00     0.293 HD
ENDBRANCH  14  20
ENDBRANCH   1  12
BRANCH   2  22
ATOM     22  O   UNL     1      -0.667   2.435  -0.379  1.00  0.00    -0.502 OA
ATOM     23  H   UNL     1      -0.148   3.269  -0.359  1.00  0.00     0.293 HD
ENDBRANCH   2  22
BRANCH   6  24
ATOM     24  O   UNL     1       4.530   2.392   0.303  1.00  0.00    -0.507 OA
ATOM     25  H   UNL     1       5.493   2.418   0.417  1.00  0.00     0.293 HD
ENDBRANCH   6  24
BRANCH   8  26
ATOM     26  O   UNL     1       5.409  -2.307   0.454  1.00  0.00    -0.508 OA
ATOM     27  H   UNL     1       6.316  -1.977   0.569  1.00  0.00     0.293 HD
ENDBRANCH   8  26
TORSDOF 6
