REMARK SMILES O=c1cc(-c2ccc(O)cc2)oc2cc(O)c([C@@H]3O[C@H](CO)[C@@H](O)[C@H](O)[C@H]3O)c(O)c12
REMARK SMILES IDX 4 1 3 2 2 3 1 4 31 5 13 6 12 7 14 8 15 9 17 10 29 11 5 12
REMARK SMILES IDX 6 13 7 14 8 15 11 16 10 17 9 18 30 20 16 22 18 24 27 25
REMARK SMILES IDX 19 26 25 27 20 28 23 29 28 30 26 32 21 34 22 35 24 37
REMARK H PARENT 9 19 30 21 16 23 28 31 26 33 22 36 24 38
ROOT
ATOM      1  C   UNL     1       3.665  -0.071  -0.507  1.00  0.00     0.138 C 
ATOM      2  C   UNL     1       3.093   0.206  -1.687  1.00  0.00     0.100 C 
ATOM      3  C   UNL     1       1.626   0.228  -1.778  1.00  0.00     0.197 C 
ATOM      4  O   UNL     1       1.056   0.482  -2.833  1.00  0.00    -0.289 OA
ATOM      5  C   UNL     1       0.870  -0.069  -0.553  1.00  0.00     0.107 A 
ATOM      6  C   UNL     1       1.590  -0.331   0.609  1.00  0.00     0.146 A 
ATOM      7  O   UNL     1       2.962  -0.327   0.659  1.00  0.00    -0.456 OA
ATOM      8  C   UNL     1       0.919  -0.591   1.801  1.00  0.00     0.094 A 
ATOM      9  C   UNL     1      -0.476  -0.608   1.812  1.00  0.00     0.128 A 
ATOM     10  C   UNL     1      -1.232  -0.392   0.646  1.00  0.00     0.068 A 
ATOM     11  C   UNL     1      -0.534  -0.082  -0.535  1.00  0.00     0.140 A 
ENDROOT
BRANCH   1  12
ATOM     12  C   UNL     1       5.131  -0.098  -0.346  1.00  0.00     0.018 A 
ATOM     13  C   UNL     1       5.726   0.514   0.769  1.00  0.00     0.016 A 
ATOM     14  C   UNL     1       7.114   0.493   0.944  1.00  0.00     0.047 A 
ATOM     15  C   UNL     1       7.910  -0.150   0.004  1.00  0.00     0.115 A 
ATOM     16  C   UNL     1       5.958  -0.748  -1.276  1.00  0.00     0.016 A 
ATOM     17  C   UNL     1       7.344  -0.771  -1.102  1.00  0.00     0.047 A 
BRANCH  15  18
ATOM     18  O   UNL     1       9.266  -0.196   0.133  1.00  0.00    -0.508 OA
ATOM     19  H   UNL     1       9.520   0.277   0.942  1.00  0.00     0.293 HD
ENDBRANCH  15  18
ENDBRANCH   1  12
BRANCH  11  20
ATOM     20  O   UNL     1      -1.257   0.240  -1.656  1.00  0.00    -0.506 OA
ATOM     21  H   UNL     1      -0.637   0.372  -2.408  1.00  0.00     0.293 HD
ENDBRANCH  11  20
BRANCH   9  22
ATOM     22  O   UNL     1      -1.134  -0.791   2.999  1.00  0.00    -0.507 OA
ATOM     23  H   UNL     1      -0.504  -1.122   3.664  1.00  0.00     0.293 HD
ENDBRANCH   9  22
BRANCH  10  24
ATOM     24  C   UNL     1      -2.755  -0.463   0.704  1.00  0.00     0.188 C 
ATOM     25  C   UNL     1      -3.372   0.951   0.769  1.00  0.00     0.179 C 
ATOM     26  O   UNL     1      -3.228  -1.263  -0.391  1.00  0.00    -0.362 OA
ATOM     27  C   UNL     1      -4.911   0.886   0.815  1.00  0.00     0.177 C 
ATOM     28  C   UNL     1      -4.572  -1.004  -0.832  1.00  0.00     0.176 C 
ATOM     29  C   UNL     1      -5.475  -0.428   0.270  1.00  0.00     0.177 C 
BRANCH  25  30
ATOM     30  O   UNL     1      -2.944   1.722   1.911  1.00  0.00    -0.387 OA
ATOM     31  H   UNL     1      -2.446   1.124   2.501  1.00  0.00     0.211 HD
ENDBRANCH  25  30
BRANCH  27  32
ATOM     32  O   UNL     1      -5.453   1.989   0.065  1.00  0.00    -0.387 OA
ATOM     33  H   UNL     1      -5.059   2.792   0.463  1.00  0.00     0.211 HD
ENDBRANCH  27  32
BRANCH  28  34
ATOM     34  C   UNL     1      -4.534  -0.146  -2.112  1.00  0.00     0.191 C 
BRANCH  34  35
ATOM     35  O   UNL     1      -5.811   0.378  -2.460  1.00  0.00    -0.394 OA
ATOM     36  H   UNL     1      -5.948   1.167  -1.896  1.00  0.00     0.210 HD
ENDBRANCH  34  35
ENDBRANCH  28  34
BRANCH  29  37
ATOM     37  O   UNL     1      -5.575  -1.379   1.345  1.00  0.00    -0.388 OA
ATOM     38  H   UNL     1      -6.360  -1.135   1.868  1.00  0.00     0.211 HD
ENDBRANCH  29  37
ENDBRANCH  10  24
TORSDOF 10
