REMARK SMILES O=c1cc(-c2ccc(O)cc2)oc2cc(O)c([C@@H]3O[C@H](CO)[C@@H](O)[C@H](O)[C@H]3O)c(O)c12
REMARK SMILES IDX 4 1 3 2 2 3 1 4 31 5 13 6 12 7 14 8 15 9 17 10 29 11 5 12
REMARK SMILES IDX 6 13 7 14 8 15 11 16 10 17 9 18 30 20 16 22 18 24 27 25
REMARK SMILES IDX 19 26 25 27 20 28 23 29 28 30 26 32 21 34 22 35 24 37
REMARK H PARENT 9 19 30 21 16 23 28 31 26 33 22 36 24 38
ROOT
ATOM      1  C   UNL     1       3.779   0.168  -0.346  1.00  0.00     0.138 C 
ATOM      2  C   UNL     1       3.558   1.419   0.084  1.00  0.00     0.100 C 
ATOM      3  C   UNL     1       2.181   1.831   0.387  1.00  0.00     0.197 C 
ATOM      4  O   UNL     1       1.918   2.965   0.774  1.00  0.00    -0.289 OA
ATOM      5  C   UNL     1       1.123   0.830   0.208  1.00  0.00     0.107 A 
ATOM      6  C   UNL     1       1.488  -0.433  -0.242  1.00  0.00     0.146 A 
ATOM      7  O   UNL     1       2.786  -0.784  -0.515  1.00  0.00    -0.456 OA
ATOM      8  C   UNL     1       0.513  -1.404  -0.452  1.00  0.00     0.094 A 
ATOM      9  C   UNL     1      -0.829  -1.111  -0.189  1.00  0.00     0.128 A 
ATOM     10  C   UNL     1      -1.224   0.143   0.309  1.00  0.00     0.068 A 
ATOM     11  C   UNL     1      -0.224   1.123   0.466  1.00  0.00     0.140 A 
ENDROOT
BRANCH   1  12
ATOM     12  C   UNL     1       5.138  -0.314  -0.659  1.00  0.00     0.018 A 
ATOM     13  C   UNL     1       5.546  -1.585  -0.228  1.00  0.00     0.016 A 
ATOM     14  C   UNL     1       6.825  -2.062  -0.523  1.00  0.00     0.047 A 
ATOM     15  C   UNL     1       7.702  -1.274  -1.257  1.00  0.00     0.115 A 
ATOM     16  C   UNL     1       6.039   0.462  -1.407  1.00  0.00     0.016 A 
ATOM     17  C   UNL     1       7.320  -0.014  -1.705  1.00  0.00     0.047 A 
BRANCH  15  18
ATOM     18  O   UNL     1       8.939  -1.779  -1.523  1.00  0.00    -0.508 OA
ATOM     19  H   UNL     1       9.440  -1.126  -2.039  1.00  0.00     0.293 HD
ENDBRANCH  15  18
ENDBRANCH   1  12
BRANCH  11  20
ATOM     20  O   UNL     1      -0.620   2.386   0.844  1.00  0.00    -0.506 OA
ATOM     21  H   UNL     1       0.189   2.934   0.986  1.00  0.00     0.293 HD
ENDBRANCH  11  20
BRANCH   9  22
ATOM     22  O   UNL     1      -1.771  -2.062  -0.456  1.00  0.00    -0.507 OA
ATOM     23  H   UNL     1      -1.351  -2.875  -0.779  1.00  0.00     0.293 HD
ENDBRANCH   9  22
BRANCH  10  24
ATOM     24  C   UNL     1      -2.673   0.501   0.632  1.00  0.00     0.188 C 
ATOM     25  C   UNL     1      -3.330   1.233  -0.567  1.00  0.00     0.179 C 
ATOM     26  O   UNL     1      -3.423  -0.636   1.049  1.00  0.00    -0.362 OA
ATOM     27  C   UNL     1      -4.825   0.896  -0.717  1.00  0.00     0.177 C 
ATOM     28  C   UNL     1      -4.743  -0.311   1.527  1.00  0.00     0.176 C 
ATOM     29  C   UNL     1      -5.469   0.749   0.670  1.00  0.00     0.177 C 
BRANCH  25  30
ATOM     30  O   UNL     1      -3.228   2.660  -0.348  1.00  0.00    -0.387 OA
ATOM     31  H   UNL     1      -2.285   2.837  -0.140  1.00  0.00     0.211 HD
ENDBRANCH  25  30
BRANCH  27  32
ATOM     32  O   UNL     1      -5.012  -0.280  -1.503  1.00  0.00    -0.387 OA
ATOM     33  H   UNL     1      -5.953  -0.323  -1.748  1.00  0.00     0.211 HD
ENDBRANCH  27  32
BRANCH  28  34
ATOM     34  C   UNL     1      -5.509  -1.640   1.532  1.00  0.00     0.191 C 
BRANCH  34  35
ATOM     35  O   UNL     1      -4.786  -2.608   2.297  1.00  0.00    -0.394 OA
ATOM     36  H   UNL     1      -3.860  -2.513   1.990  1.00  0.00     0.210 HD
ENDBRANCH  34  35
ENDBRANCH  28  34
BRANCH  29  37
ATOM     37  O   UNL     1      -5.457   2.010   1.363  1.00  0.00    -0.388 OA
ATOM     38  H   UNL     1      -4.765   2.581   0.967  1.00  0.00     0.211 HD
ENDBRANCH  29  37
ENDBRANCH  10  24
TORSDOF 10
