REMARK SMILES O=c1cc(-c2ccc(O)cc2)oc2cc(O)c([C@@H]3O[C@H](CO)[C@@H](O)[C@H](O)[C@H]3O)c(O)c12
REMARK SMILES IDX 4 1 3 2 2 3 1 4 31 5 13 6 12 7 14 8 15 9 17 10 29 11 5 12
REMARK SMILES IDX 6 13 7 14 8 15 11 16 10 17 9 18 30 20 16 22 18 24 27 25
REMARK SMILES IDX 19 26 25 27 20 28 23 29 28 30 26 32 21 34 22 35 24 37
REMARK H PARENT 9 19 30 21 16 23 28 31 26 33 22 36 24 38
ROOT
ATOM      1  C   UNL     1       3.666  -0.228   0.163  1.00  0.00     0.138 C 
ATOM      2  C   UNL     1       3.149  -1.462   0.253  1.00  0.00     0.100 C 
ATOM      3  C   UNL     1       1.692  -1.631   0.164  1.00  0.00     0.197 C 
ATOM      4  O   UNL     1       1.174  -2.740   0.239  1.00  0.00    -0.289 OA
ATOM      5  C   UNL     1       0.883  -0.418  -0.016  1.00  0.00     0.107 A 
ATOM      6  C   UNL     1       1.547   0.801  -0.101  1.00  0.00     0.146 A 
ATOM      7  O   UNL     1       2.913   0.919  -0.027  1.00  0.00    -0.456 OA
ATOM      8  C   UNL     1       0.824   1.978  -0.274  1.00  0.00     0.094 A 
ATOM      9  C   UNL     1      -0.570   1.926  -0.356  1.00  0.00     0.128 A 
ATOM     10  C   UNL     1      -1.271   0.710  -0.270  1.00  0.00     0.068 A 
ATOM     11  C   UNL     1      -0.517  -0.467  -0.104  1.00  0.00     0.140 A 
ENDROOT
BRANCH   1  12
ATOM     12  C   UNL     1       5.121   0.009   0.234  1.00  0.00     0.018 A 
ATOM     13  C   UNL     1       5.731   0.901  -0.663  1.00  0.00     0.016 A 
ATOM     14  C   UNL     1       7.106   1.146  -0.607  1.00  0.00     0.047 A 
ATOM     15  C   UNL     1       7.876   0.502   0.354  1.00  0.00     0.115 A 
ATOM     16  C   UNL     1       5.919  -0.621   1.201  1.00  0.00     0.016 A 
ATOM     17  C   UNL     1       7.294  -0.377   1.258  1.00  0.00     0.047 A 
BRANCH  15  18
ATOM     18  O   UNL     1       9.220   0.710   0.447  1.00  0.00    -0.508 OA
ATOM     19  H   UNL     1       9.486   1.343  -0.240  1.00  0.00     0.293 HD
ENDBRANCH  15  18
ENDBRANCH   1  12
BRANCH  11  20
ATOM     20  O   UNL     1      -1.188  -1.662  -0.042  1.00  0.00    -0.506 OA
ATOM     21  H   UNL     1      -0.545  -2.388   0.118  1.00  0.00     0.293 HD
ENDBRANCH  11  20
BRANCH   9  22
ATOM     22  O   UNL     1      -1.268   3.090  -0.525  1.00  0.00    -0.507 OA
ATOM     23  H   UNL     1      -0.656   3.845  -0.519  1.00  0.00     0.293 HD
ENDBRANCH   9  22
BRANCH  10  24
ATOM     24  C   UNL     1      -2.792   0.687  -0.336  1.00  0.00     0.188 C 
ATOM     25  C   UNL     1      -3.341  -0.079  -1.571  1.00  0.00     0.179 C 
ATOM     26  O   UNL     1      -3.288   0.141   0.890  1.00  0.00    -0.362 OA
ATOM     27  C   UNL     1      -4.694  -0.765  -1.281  1.00  0.00     0.177 C 
ATOM     28  C   UNL     1      -4.711   0.307   1.040  1.00  0.00     0.176 C 
ATOM     29  C   UNL     1      -5.506   0.043  -0.258  1.00  0.00     0.177 C 
BRANCH  25  30
ATOM     30  O   UNL     1      -3.551   0.880  -2.633  1.00  0.00    -0.387 OA
ATOM     31  H   UNL     1      -3.494   0.380  -3.469  1.00  0.00     0.211 HD
ENDBRANCH  25  30
BRANCH  27  32
ATOM     32  O   UNL     1      -4.504  -2.110  -0.844  1.00  0.00    -0.387 OA
ATOM     33  H   UNL     1      -5.374  -2.544  -0.819  1.00  0.00     0.211 HD
ENDBRANCH  27  32
BRANCH  28  34
ATOM     34  C   UNL     1      -5.121  -0.669   2.150  1.00  0.00     0.191 C 
BRANCH  34  35
ATOM     35  O   UNL     1      -4.372  -0.391   3.335  1.00  0.00    -0.394 OA
ATOM     36  H   UNL     1      -3.447  -0.305   3.026  1.00  0.00     0.210 HD
ENDBRANCH  34  35
ENDBRANCH  28  34
BRANCH  29  37
ATOM     37  O   UNL     1      -5.921   1.292  -0.839  1.00  0.00    -0.388 OA
ATOM     38  H   UNL     1      -5.203   1.631  -1.411  1.00  0.00     0.211 HD
ENDBRANCH  29  37
ENDBRANCH  10  24
TORSDOF 10
