REMARK SMILES CC1(C)CC[C@]2(C(=O)O)CC[C@]3(C)C(=CC[C@@H]4[C@@]5(C)C[C@@H](O)[C@H](O)C(C)(C)[C@@H]5CC[C@]43C)[C@@H]2C1
REMARK SMILES IDX 32 1 31 2 30 3 29 4 28 5 18 6 17 7 16 8 15 9 14 10 12 11
REMARK SMILES IDX 11 12 10 13 6 14 33 15 34 16 2 17 4 18 5 19 1 20 3 21 13 22
REMARK SMILES IDX 20 23 21 24 23 25 25 26 26 27 27 28 19 29 22 30 7 32 8 33
REMARK SMILES IDX 9 34 24 36
REMARK H PARENT 22 31 9 35 24 37
ROOT
ATOM      1  C   UNL     1       0.595  -1.888  -1.362  1.00  0.00     0.012 C 
ATOM      2  C   UNL     1       0.632  -0.998  -0.083  1.00  0.00    -0.020 C 
ATOM      3  C   UNL     1       1.523  -1.730   0.959  1.00  0.00     0.008 C 
ATOM      4  C   UNL     1       3.024  -1.696   0.662  1.00  0.00     0.005 C 
ATOM      5  C   UNL     1       3.521  -0.241   0.548  1.00  0.00     0.004 C 
ATOM      6  C   UNL     1       2.822   0.493  -0.658  1.00  0.00    -0.023 C 
ATOM      7  C   UNL     1       1.248   0.419  -0.405  1.00  0.00     0.006 C 
ATOM      8  C   UNL     1       0.396   1.164  -1.455  1.00  0.00     0.032 C 
ATOM      9  C   UNL     1      -1.083   0.990  -1.289  1.00  0.00    -0.027 C 
ATOM     10  C   UNL     1      -1.695   0.139  -0.441  1.00  0.00    -0.063 C 
ATOM     11  C   UNL     1      -0.891  -0.790   0.485  1.00  0.00    -0.006 C 
ATOM     12  C   UNL     1      -1.616  -2.161   0.615  1.00  0.00     0.013 C 
ATOM     13  C   UNL     1      -3.111  -2.056   0.915  1.00  0.00     0.020 C 
ATOM     14  C   UNL     1      -3.875  -1.291  -0.189  1.00  0.00     0.074 C 
ATOM     15  C   UNL     1      -3.230   0.107  -0.440  1.00  0.00     0.033 C 
ATOM     16  C   UNL     1      -3.842   1.167   0.500  1.00  0.00     0.015 C 
ATOM     17  C   UNL     1      -5.351   1.395   0.213  1.00  0.00    -0.035 C 
ATOM     18  C   UNL     1      -6.025   0.101  -0.310  1.00  0.00     0.007 C 
ATOM     19  C   UNL     1      -5.363  -1.158   0.251  1.00  0.00     0.020 C 
ATOM     20  C   UNL     1      -6.038   1.859   1.512  1.00  0.00     0.011 C 
ATOM     21  C   UNL     1      -5.527   2.506  -0.840  1.00  0.00     0.011 C 
ATOM     22  C   UNL     1      -0.885  -0.131   1.897  1.00  0.00     0.017 C 
ATOM     23  C   UNL     1       3.258   1.990  -0.630  1.00  0.00     0.042 C 
ATOM     24  C   UNL     1       4.770   2.201  -0.556  1.00  0.00     0.144 C 
ATOM     25  C   UNL     1       5.394   1.463   0.635  1.00  0.00     0.149 C 
ATOM     26  C   UNL     1       5.079  -0.058   0.669  1.00  0.00    -0.003 C 
ATOM     27  C   UNL     1       5.566  -0.593   2.045  1.00  0.00     0.014 C 
ATOM     28  C   UNL     1       5.886  -0.829  -0.394  1.00  0.00     0.014 C 
ATOM     29  C   UNL     1       3.234  -0.081  -2.037  1.00  0.00     0.012 C 
ENDROOT
BRANCH  24  30
ATOM     30  O   UNL     1       5.046   3.602  -0.394  1.00  0.00    -0.390 OA
ATOM     31  H   UNL     1       4.659   4.061  -1.160  1.00  0.00     0.211 HD
ENDBRANCH  24  30
BRANCH  14  32
ATOM     32  C   UNL     1      -3.881  -2.082  -1.506  1.00  0.00     0.310 C 
ATOM     33  O   UNL     1      -3.859  -1.628  -2.639  1.00  0.00    -0.252 OA
BRANCH  32  34
ATOM     34  O   UNL     1      -3.997  -3.415  -1.341  1.00  0.00    -0.481 OA
ATOM     35  H   UNL     1      -4.019  -3.760  -2.258  1.00  0.00     0.296 HD
ENDBRANCH  32  34
ENDBRANCH  14  32
BRANCH  25  36
ATOM     36  O   UNL     1       6.808   1.696   0.616  1.00  0.00    -0.390 OA
ATOM     37  H   UNL     1       6.899   2.661   0.489  1.00  0.00     0.211 HD
ENDBRANCH  25  36
TORSDOF 4
