REMARK SMILES CC1(C)CC[C@]2(C(=O)O)CC[C@]3(C)C(=CC[C@@H]4[C@@]5(C)C[C@@H](O)[C@H](O)C(C)(C)[C@@H]5CC[C@]43C)[C@@H]2C1
REMARK SMILES IDX 32 1 31 2 30 3 29 4 28 5 18 6 17 7 16 8 15 9 14 10 12 11
REMARK SMILES IDX 11 12 10 13 6 14 33 15 34 16 2 17 4 18 5 19 1 20 3 21 13 22
REMARK SMILES IDX 20 23 21 24 23 25 25 26 26 27 27 28 19 29 22 30 7 32 8 33
REMARK SMILES IDX 9 34 24 36
REMARK H PARENT 22 31 9 35 24 37
ROOT
ATOM      1  C   UNL     1      -0.492  -1.967   1.238  1.00  0.00     0.012 C 
ATOM      2  C   UNL     1      -0.581  -1.030  -0.004  1.00  0.00    -0.020 C 
ATOM      3  C   UNL     1      -1.439  -1.763  -1.073  1.00  0.00     0.008 C 
ATOM      4  C   UNL     1      -2.938  -1.817  -0.769  1.00  0.00     0.005 C 
ATOM      5  C   UNL     1      -3.508  -0.395  -0.595  1.00  0.00     0.004 C 
ATOM      6  C   UNL     1      -2.841   0.324   0.637  1.00  0.00    -0.023 C 
ATOM      7  C   UNL     1      -1.266   0.340   0.377  1.00  0.00     0.006 C 
ATOM      8  C   UNL     1      -0.448   1.084   1.454  1.00  0.00     0.032 C 
ATOM      9  C   UNL     1       1.037   0.993   1.274  1.00  0.00    -0.027 C 
ATOM     10  C   UNL     1       1.687   0.211   0.390  1.00  0.00    -0.063 C 
ATOM     11  C   UNL     1       0.926  -0.722  -0.568  1.00  0.00    -0.006 C 
ATOM     12  C   UNL     1       1.719  -2.048  -0.755  1.00  0.00     0.013 C 
ATOM     13  C   UNL     1       3.206  -1.855  -1.055  1.00  0.00     0.020 C 
ATOM     14  C   UNL     1       3.936  -1.095   0.074  1.00  0.00     0.074 C 
ATOM     15  C   UNL     1       3.222   0.257   0.383  1.00  0.00     0.033 C 
ATOM     16  C   UNL     1       3.773   1.384  -0.518  1.00  0.00     0.015 C 
ATOM     17  C   UNL     1       5.270   1.677  -0.227  1.00  0.00    -0.035 C 
ATOM     18  C   UNL     1       6.013   0.400   0.240  1.00  0.00     0.007 C 
ATOM     19  C   UNL     1       5.413  -0.868  -0.367  1.00  0.00     0.020 C 
ATOM     20  C   UNL     1       5.395   2.754   0.867  1.00  0.00     0.011 C 
ATOM     21  C   UNL     1       5.924   2.227  -1.510  1.00  0.00     0.011 C 
ATOM     22  C   UNL     1       0.879  -0.010  -1.953  1.00  0.00     0.017 C 
ATOM     23  C   UNL     1      -3.351   1.798   0.668  1.00  0.00     0.042 C 
ATOM     24  C   UNL     1      -4.872   1.936   0.604  1.00  0.00     0.144 C 
ATOM     25  C   UNL     1      -5.472   1.210  -0.607  1.00  0.00     0.149 C 
ATOM     26  C   UNL     1      -5.075  -0.289  -0.704  1.00  0.00    -0.003 C 
ATOM     27  C   UNL     1      -5.834  -1.143   0.331  1.00  0.00     0.014 C 
ATOM     28  C   UNL     1      -5.541  -0.794  -2.098  1.00  0.00     0.014 C 
ATOM     29  C   UNL     1      -3.217  -0.324   1.993  1.00  0.00     0.012 C 
ENDROOT
BRANCH  24  30
ATOM     30  O   UNL     1      -5.226   3.326   0.520  1.00  0.00    -0.390 OA
ATOM     31  H   UNL     1      -4.730   3.719  -0.220  1.00  0.00     0.211 HD
ENDBRANCH  24  30
BRANCH  14  32
ATOM     32  C   UNL     1       3.992  -1.934   1.360  1.00  0.00     0.310 C 
ATOM     33  O   UNL     1       3.962  -1.525   2.509  1.00  0.00    -0.252 OA
BRANCH  32  34
ATOM     34  O   UNL     1       4.167  -3.254   1.143  1.00  0.00    -0.481 OA
ATOM     35  H   UNL     1       4.213  -3.632   2.046  1.00  0.00     0.296 HD
ENDBRANCH  32  34
ENDBRANCH  14  32
BRANCH  25  36
ATOM     36  O   UNL     1      -6.896   1.364  -0.572  1.00  0.00    -0.390 OA
ATOM     37  H   UNL     1      -7.059   2.269  -0.240  1.00  0.00     0.211 HD
ENDBRANCH  25  36
TORSDOF 4
