REMARK SMILES CC1(C)CC[C@]2(C(=O)O)CC[C@]3(C)C(=CC[C@@H]4[C@@]5(C)C[C@@H](O)[C@H](O)C(C)(C)[C@@H]5CC[C@]43C)[C@@H]2C1
REMARK SMILES IDX 32 1 31 2 30 3 29 4 28 5 18 6 17 7 16 8 15 9 14 10 12 11
REMARK SMILES IDX 11 12 10 13 6 14 33 15 34 16 2 17 4 18 5 19 1 20 3 21 13 22
REMARK SMILES IDX 20 23 21 24 23 25 25 26 26 27 27 28 19 29 22 30 7 32 8 33
REMARK SMILES IDX 9 34 24 36
REMARK H PARENT 22 31 9 35 24 37
ROOT
ATOM      1  C   UNL     1       0.672   1.416   1.836  1.00  0.00     0.012 C 
ATOM      2  C   UNL     1       0.691   0.902   0.364  1.00  0.00    -0.020 C 
ATOM      3  C   UNL     1       1.609   1.855  -0.446  1.00  0.00     0.008 C 
ATOM      4  C   UNL     1       3.100   1.696  -0.148  1.00  0.00     0.005 C 
ATOM      5  C   UNL     1       3.566   0.258  -0.454  1.00  0.00     0.004 C 
ATOM      6  C   UNL     1       2.829  -0.785   0.452  1.00  0.00    -0.023 C 
ATOM      7  C   UNL     1       1.255  -0.569   0.288  1.00  0.00     0.006 C 
ATOM      8  C   UNL     1       0.390  -1.514   1.149  1.00  0.00     0.032 C 
ATOM      9  C   UNL     1      -1.084  -1.279   1.015  1.00  0.00    -0.027 C 
ATOM     10  C   UNL     1      -1.670  -0.225   0.410  1.00  0.00    -0.063 C 
ATOM     11  C   UNL     1      -0.837   0.902  -0.229  1.00  0.00    -0.006 C 
ATOM     12  C   UNL     1      -1.522   2.275   0.034  1.00  0.00     0.013 C 
ATOM     13  C   UNL     1      -3.019   2.299  -0.277  1.00  0.00     0.020 C 
ATOM     14  C   UNL     1      -3.810   1.273   0.565  1.00  0.00     0.074 C 
ATOM     15  C   UNL     1      -3.203  -0.156   0.412  1.00  0.00     0.033 C 
ATOM     16  C   UNL     1      -3.831  -0.892  -0.790  1.00  0.00     0.015 C 
ATOM     17  C   UNL     1      -5.349  -1.151  -0.581  1.00  0.00    -0.035 C 
ATOM     18  C   UNL     1      -5.996  -0.040   0.283  1.00  0.00     0.007 C 
ATOM     19  C   UNL     1      -5.298   1.308   0.102  1.00  0.00     0.020 C 
ATOM     20  C   UNL     1      -5.562  -2.509   0.115  1.00  0.00     0.011 C 
ATOM     21  C   UNL     1      -6.034  -1.213  -1.960  1.00  0.00     0.011 C 
ATOM     22  C   UNL     1      -0.845   0.666  -1.769  1.00  0.00     0.017 C 
ATOM     23  C   UNL     1       3.177  -2.239  -0.040  1.00  0.00     0.042 C 
ATOM     24  C   UNL     1       4.418  -2.368  -0.936  1.00  0.00     0.144 C 
ATOM     25  C   UNL     1       5.557  -1.411  -0.550  1.00  0.00     0.149 C 
ATOM     26  C   UNL     1       5.133   0.098  -0.558  1.00  0.00    -0.003 C 
ATOM     27  C   UNL     1       5.580   0.696  -1.926  1.00  0.00     0.014 C 
ATOM     28  C   UNL     1       5.903   0.897   0.518  1.00  0.00     0.014 C 
ATOM     29  C   UNL     1       3.290  -0.691   1.928  1.00  0.00     0.012 C 
ENDROOT
BRANCH  24  30
ATOM     30  O   UNL     1       4.060  -2.174  -2.305  1.00  0.00    -0.390 OA
ATOM     31  H   UNL     1       3.355  -2.809  -2.521  1.00  0.00     0.211 HD
ENDBRANCH  24  30
BRANCH  14  32
ATOM     32  C   UNL     1      -3.810   1.658   2.052  1.00  0.00     0.310 C 
ATOM     33  O   UNL     1      -3.843   0.900   3.008  1.00  0.00    -0.252 OA
BRANCH  32  34
ATOM     34  O   UNL     1      -3.858   2.987   2.273  1.00  0.00    -0.481 OA
ATOM     35  H   UNL     1      -3.883   3.057   3.251  1.00  0.00     0.296 HD
ENDBRANCH  32  34
ENDBRANCH  14  32
BRANCH  25  36
ATOM     36  O   UNL     1       6.089  -1.804   0.719  1.00  0.00    -0.390 OA
ATOM     37  H   UNL     1       6.536  -2.659   0.594  1.00  0.00     0.211 HD
ENDBRANCH  25  36
TORSDOF 4
