REMARK SMILES CC(C)=CCc1cc2cc(-c3cc(O)cc(O)c3)oc2cc1O
REMARK SMILES IDX 6 1 22 2 21 3 20 4 8 5 7 6 9 7 10 8 19 9 5 10 4 11 2 12 1 13
REMARK SMILES IDX 3 14 23 15 11 17 18 18 12 19 16 20 13 21 15 22 17 23 14 25
REMARK H PARENT 23 16 17 24 14 26
ROOT
ATOM      1  C   UNL     1      -1.922  -0.008  -1.609  1.00  0.00    -0.002 A 
ATOM      2  C   UNL     1      -1.197   0.940  -2.347  1.00  0.00     0.122 A 
ATOM      3  C   UNL     1       0.169   1.162  -2.143  1.00  0.00     0.094 A 
ATOM      4  C   UNL     1       0.771   0.391  -1.153  1.00  0.00     0.138 A 
ATOM      5  C   UNL     1       0.107  -0.553  -0.384  1.00  0.00     0.021 A 
ATOM      6  C   UNL     1      -1.265  -0.758  -0.609  1.00  0.00     0.020 A 
ATOM      7  C   UNL     1       1.085  -1.092   0.493  1.00  0.00     0.059 A 
ATOM      8  C   UNL     1       2.279  -0.454   0.211  1.00  0.00     0.135 A 
ATOM      9  O   UNL     1       2.083   0.452  -0.796  1.00  0.00    -0.456 OA
ENDROOT
BRANCH   1  10
ATOM     10  C   UNL     1      -3.404  -0.225  -1.830  1.00  0.00     0.066 C 
BRANCH  10  11
ATOM     11  C   UNL     1      -4.243   0.606  -0.895  1.00  0.00    -0.023 C 
ATOM     12  C   UNL     1      -5.022   0.193   0.124  1.00  0.00    -0.080 C 
ATOM     13  C   UNL     1      -5.193  -1.233   0.567  1.00  0.00     0.039 C 
ATOM     14  C   UNL     1      -5.808   1.190   0.936  1.00  0.00     0.039 C 
ENDBRANCH  10  11
ENDBRANCH   1  10
BRANCH   2  15
ATOM     15  O   UNL     1      -1.858   1.672  -3.299  1.00  0.00    -0.508 OA
ATOM     16  H   UNL     1      -1.231   2.288  -3.713  1.00  0.00     0.293 HD
ENDBRANCH   2  15
BRANCH   8  17
ATOM     17  C   UNL     1       3.637  -0.547   0.744  1.00  0.00     0.025 A 
ATOM     18  C   UNL     1       3.937  -1.449   1.776  1.00  0.00     0.058 A 
ATOM     19  C   UNL     1       4.673   0.258   0.241  1.00  0.00     0.058 A 
ATOM     20  C   UNL     1       5.231  -1.538   2.285  1.00  0.00     0.120 A 
ATOM     21  C   UNL     1       5.962   0.154   0.764  1.00  0.00     0.120 A 
ATOM     22  C   UNL     1       6.252  -0.741   1.785  1.00  0.00     0.092 A 
BRANCH  20  23
ATOM     23  O   UNL     1       5.457  -2.435   3.288  1.00  0.00    -0.508 OA
ATOM     24  H   UNL     1       6.395  -2.386   3.539  1.00  0.00     0.293 HD
ENDBRANCH  20  23
BRANCH  21  25
ATOM     25  O   UNL     1       6.983   0.926   0.290  1.00  0.00    -0.508 OA
ATOM     26  H   UNL     1       6.637   1.500  -0.414  1.00  0.00     0.293 HD
ENDBRANCH  21  25
ENDBRANCH   8  17
TORSDOF 6
