REMARK SMILES Oc1cc(O)cc(-c2cc3ccc(O)cc3o2)c1
REMARK SMILES IDX 12 1 11 2 10 3 16 4 15 5 13 6 17 7 8 8 9 9 14 10 7 12 6 13
REMARK SMILES IDX 18 14 4 15 2 16 3 17 5 18 1 20
REMARK H PARENT 14 11 5 19 1 21
ROOT
ATOM      1  C   UNL     1       4.388  -1.122  -0.276  1.00  0.00     0.047 A 
ATOM      2  C   UNL     1       3.198  -1.856  -0.181  1.00  0.00     0.016 A 
ATOM      3  C   UNL     1       1.985  -1.155  -0.068  1.00  0.00     0.021 A 
ATOM      4  C   UNL     1       2.017   0.234  -0.056  1.00  0.00     0.138 A 
ATOM      5  C   UNL     1       3.180   0.995  -0.148  1.00  0.00     0.093 A 
ATOM      6  C   UNL     1       4.368   0.272  -0.259  1.00  0.00     0.119 A 
ATOM      7  O   UNL     1       0.756   0.734   0.058  1.00  0.00    -0.456 OA
ATOM      8  C   UNL     1      -0.105  -0.329   0.121  1.00  0.00     0.135 A 
ATOM      9  C   UNL     1       0.614  -1.508   0.046  1.00  0.00     0.059 A 
ENDROOT
BRANCH   6  10
ATOM     10  O   UNL     1       5.571   0.914  -0.356  1.00  0.00    -0.508 OA
ATOM     11  H   UNL     1       5.415   1.873  -0.332  1.00  0.00     0.293 HD
ENDBRANCH   6  10
BRANCH   8  12
ATOM     12  C   UNL     1      -1.525  -0.005   0.248  1.00  0.00     0.025 A 
ATOM     13  C   UNL     1      -1.966   1.328   0.300  1.00  0.00     0.058 A 
ATOM     14  C   UNL     1      -2.484  -1.026   0.320  1.00  0.00     0.058 A 
ATOM     15  C   UNL     1      -3.325   1.615   0.421  1.00  0.00     0.120 A 
ATOM     16  C   UNL     1      -3.838  -0.718   0.440  1.00  0.00     0.120 A 
ATOM     17  C   UNL     1      -4.270   0.600   0.492  1.00  0.00     0.092 A 
BRANCH  15  18
ATOM     18  O   UNL     1      -3.775   2.903   0.474  1.00  0.00    -0.508 OA
ATOM     19  H   UNL     1      -3.012   3.501   0.414  1.00  0.00     0.293 HD
ENDBRANCH  15  18
BRANCH  16  20
ATOM     20  O   UNL     1      -4.720  -1.757   0.505  1.00  0.00    -0.508 OA
ATOM     21  H   UNL     1      -5.618  -1.394   0.587  1.00  0.00     0.293 HD
ENDBRANCH  16  20
ENDBRANCH   8  12
TORSDOF 4
