REMARK SMILES CC(C)=CCc1cc2cc(-c3cc(O)cc(O)c3)oc2cc1O
REMARK SMILES IDX 6 1 22 2 21 3 20 4 8 5 7 6 9 7 10 8 19 9 5 10 4 11 2 12 1 13
REMARK SMILES IDX 3 14 23 15 11 17 18 18 12 19 16 20 13 21 15 22 17 23 14 25
REMARK H PARENT 23 16 17 24 14 26
ROOT
ATOM      1  C   UNL     1       2.016  -0.994   0.396  1.00  0.00    -0.002 A 
ATOM      2  C   UNL     1       1.774  -0.112   1.462  1.00  0.00     0.122 A 
ATOM      3  C   UNL     1       0.508   0.429   1.712  1.00  0.00     0.094 A 
ATOM      4  C   UNL     1      -0.504   0.044   0.839  1.00  0.00     0.138 A 
ATOM      5  C   UNL     1      -0.328  -0.819  -0.232  1.00  0.00     0.021 A 
ATOM      6  C   UNL     1       0.953  -1.349  -0.464  1.00  0.00     0.020 A 
ATOM      7  C   UNL     1      -1.602  -0.932  -0.848  1.00  0.00     0.059 A 
ATOM      8  C   UNL     1      -2.476  -0.141  -0.124  1.00  0.00     0.135 A 
ATOM      9  O   UNL     1      -1.800   0.453   0.907  1.00  0.00    -0.456 OA
ENDROOT
BRANCH   1  10
ATOM     10  C   UNL     1       3.398  -1.549   0.126  1.00  0.00     0.066 C 
BRANCH  10  11
ATOM     11  C   UNL     1       4.149  -0.742  -0.901  1.00  0.00    -0.023 C 
ATOM     12  C   UNL     1       5.264  -0.003  -0.730  1.00  0.00    -0.080 C 
ATOM     13  C   UNL     1       5.990   0.187   0.573  1.00  0.00     0.039 C 
ATOM     14  C   UNL     1       5.880   0.733  -1.892  1.00  0.00     0.039 C 
ENDBRANCH  10  11
ENDBRANCH   1  10
BRANCH   2  15
ATOM     15  O   UNL     1       2.816   0.223   2.285  1.00  0.00    -0.508 OA
ATOM     16  H   UNL     1       2.507   0.882   2.929  1.00  0.00     0.293 HD
ENDBRANCH   2  15
BRANCH   8  17
ATOM     17  C   UNL     1      -3.899   0.172  -0.231  1.00  0.00     0.025 A 
ATOM     18  C   UNL     1      -4.527   1.036   0.679  1.00  0.00     0.058 A 
ATOM     19  C   UNL     1      -4.677  -0.389  -1.255  1.00  0.00     0.058 A 
ATOM     20  C   UNL     1      -5.887   1.323   0.562  1.00  0.00     0.120 A 
ATOM     21  C   UNL     1      -6.035  -0.091  -1.358  1.00  0.00     0.120 A 
ATOM     22  C   UNL     1      -6.654   0.766  -0.454  1.00  0.00     0.092 A 
BRANCH  20  23
ATOM     23  O   UNL     1      -6.433   2.172   1.481  1.00  0.00    -0.508 OA
ATOM     24  H   UNL     1      -7.377   2.286   1.287  1.00  0.00     0.293 HD
ENDBRANCH  20  23
BRANCH  21  25
ATOM     25  O   UNL     1      -6.731  -0.672  -2.378  1.00  0.00    -0.508 OA
ATOM     26  H   UNL     1      -7.657  -0.383  -2.335  1.00  0.00     0.293 HD
ENDBRANCH  21  25
ENDBRANCH   8  17
TORSDOF 6
