REMARK SMILES Oc1cc(O)cc(-c2cc3ccc(O)cc3o2)c1
REMARK SMILES IDX 12 1 11 2 10 3 16 4 15 5 13 6 17 7 8 8 9 9 14 10 7 12 6 13
REMARK SMILES IDX 18 14 4 15 2 16 3 17 5 18 1 20
REMARK H PARENT 14 11 5 19 1 21
ROOT
ATOM      1  C   UNL     1      -4.479  -0.781   0.024  1.00  0.00     0.047 A 
ATOM      2  C   UNL     1      -3.349  -1.564   0.300  1.00  0.00     0.016 A 
ATOM      3  C   UNL     1      -2.079  -0.973   0.182  1.00  0.00     0.021 A 
ATOM      4  C   UNL     1      -1.997   0.359  -0.202  1.00  0.00     0.138 A 
ATOM      5  C   UNL     1      -3.097   1.166  -0.483  1.00  0.00     0.093 A 
ATOM      6  C   UNL     1      -4.344   0.553  -0.358  1.00  0.00     0.119 A 
ATOM      7  O   UNL     1      -0.696   0.753  -0.261  1.00  0.00    -0.456 OA
ATOM      8  C   UNL     1       0.078  -0.322   0.084  1.00  0.00     0.135 A 
ATOM      9  C   UNL     1      -0.738  -1.403   0.364  1.00  0.00     0.059 A 
ENDROOT
BRANCH   6  10
ATOM     10  O   UNL     1      -5.493   1.249  -0.609  1.00  0.00    -0.508 OA
ATOM     11  H   UNL     1      -5.259   2.157  -0.863  1.00  0.00     0.293 HD
ENDBRANCH   6  10
BRANCH   8  12
ATOM     12  C   UNL     1       1.524  -0.107   0.083  1.00  0.00     0.025 A 
ATOM     13  C   UNL     1       2.399  -1.150   0.424  1.00  0.00     0.058 A 
ATOM     14  C   UNL     1       2.074   1.141  -0.256  1.00  0.00     0.058 A 
ATOM     15  C   UNL     1       3.777  -0.945   0.423  1.00  0.00     0.120 A 
ATOM     16  C   UNL     1       3.457   1.325  -0.251  1.00  0.00     0.120 A 
ATOM     17  C   UNL     1       4.317   0.289   0.087  1.00  0.00     0.092 A 
BRANCH  15  18
ATOM     18  O   UNL     1       4.574  -1.999   0.763  1.00  0.00    -0.508 OA
ATOM     19  H   UNL     1       5.501  -1.712   0.719  1.00  0.00     0.293 HD
ENDBRANCH  15  18
BRANCH  16  20
ATOM     20  O   UNL     1       4.012   2.528  -0.577  1.00  0.00    -0.508 OA
ATOM     21  H   UNL     1       3.298   3.153  -0.789  1.00  0.00     0.293 HD
ENDBRANCH  16  20
ENDBRANCH   8  12
TORSDOF 4
