REMARK SMILES CC(C)=CCc1cc2cc(-c3cc(O)cc(O)c3)oc2cc1O
REMARK SMILES IDX 6 1 22 2 21 3 20 4 8 5 7 6 9 7 10 8 19 9 5 10 4 11 2 12 1 13
REMARK SMILES IDX 3 14 23 15 11 17 18 18 12 19 16 20 13 21 15 22 17 23 14 25
REMARK H PARENT 23 16 17 24 14 26
ROOT
ATOM      1  C   UNL     1       2.155   0.732  -1.136  1.00  0.00    -0.002 A 
ATOM      2  C   UNL     1       1.701   0.188  -2.347  1.00  0.00     0.122 A 
ATOM      3  C   UNL     1       0.366  -0.176  -2.551  1.00  0.00     0.094 A 
ATOM      4  C   UNL     1      -0.492   0.026  -1.473  1.00  0.00     0.138 A 
ATOM      5  C   UNL     1      -0.103   0.549  -0.250  1.00  0.00     0.021 A 
ATOM      6  C   UNL     1       1.244   0.907  -0.071  1.00  0.00     0.020 A 
ATOM      7  C   UNL     1      -1.276   0.576   0.549  1.00  0.00     0.059 A 
ATOM      8  C   UNL     1      -2.306   0.074  -0.226  1.00  0.00     0.135 A 
ATOM      9  O   UNL     1      -1.823  -0.261  -1.462  1.00  0.00    -0.456 OA
ENDROOT
BRANCH   1  10
ATOM     10  C   UNL     1       3.607   1.104  -0.924  1.00  0.00     0.066 C 
BRANCH  10  11
ATOM     11  C   UNL     1       4.392  -0.016  -0.294  1.00  0.00    -0.023 C 
ATOM     12  C   UNL     1       4.929  -0.073   0.941  1.00  0.00    -0.080 C 
ATOM     13  C   UNL     1       4.821   1.001   1.987  1.00  0.00     0.039 C 
ATOM     14  C   UNL     1       5.706  -1.287   1.380  1.00  0.00     0.039 C 
ENDBRANCH  10  11
ENDBRANCH   1  10
BRANCH   2  15
ATOM     15  O   UNL     1       2.604   0.007  -3.361  1.00  0.00    -0.508 OA
ATOM     16  H   UNL     1       2.148  -0.385  -4.124  1.00  0.00     0.293 HD
ENDBRANCH   2  15
BRANCH   8  17
ATOM     17  C   UNL     1      -3.732  -0.158  -0.003  1.00  0.00     0.025 A 
ATOM     18  C   UNL     1      -4.320   0.156   1.232  1.00  0.00     0.058 A 
ATOM     19  C   UNL     1      -4.548  -0.699  -1.011  1.00  0.00     0.058 A 
ATOM     20  C   UNL     1      -5.680  -0.065   1.445  1.00  0.00     0.120 A 
ATOM     21  C   UNL     1      -5.906  -0.914  -0.778  1.00  0.00     0.120 A 
ATOM     22  C   UNL     1      -6.482  -0.600   0.446  1.00  0.00     0.092 A 
BRANCH  20  23
ATOM     23  O   UNL     1      -6.190   0.262   2.667  1.00  0.00    -0.508 OA
ATOM     24  H   UNL     1      -7.140   0.054   2.670  1.00  0.00     0.293 HD
ENDBRANCH  20  23
BRANCH  21  25
ATOM     25  O   UNL     1      -6.717  -1.438  -1.743  1.00  0.00    -0.508 OA
ATOM     26  H   UNL     1      -6.183  -1.607  -2.537  1.00  0.00     0.293 HD
ENDBRANCH  21  25
ENDBRANCH   8  17
TORSDOF 6
