REMARK SMILES Oc1cc(O)cc(-c2cc3ccc(O)cc3o2)c1
REMARK SMILES IDX 12 1 11 2 10 3 16 4 15 5 13 6 17 7 8 8 9 9 14 10 7 12 6 13
REMARK SMILES IDX 18 14 4 15 2 16 3 17 5 18 1 20
REMARK H PARENT 14 11 5 19 1 21
ROOT
ATOM      1  C   UNL     1       4.378  -0.674  -0.679  1.00  0.00     0.047 A 
ATOM      2  C   UNL     1       3.192  -1.008  -1.349  1.00  0.00     0.016 A 
ATOM      3  C   UNL     1       1.968  -0.553  -0.824  1.00  0.00     0.021 A 
ATOM      4  C   UNL     1       1.985   0.209   0.337  1.00  0.00     0.138 A 
ATOM      5  C   UNL     1       3.142   0.558   1.027  1.00  0.00     0.093 A 
ATOM      6  C   UNL     1       4.339   0.094   0.485  1.00  0.00     0.119 A 
ATOM      7  O   UNL     1       0.718   0.556   0.691  1.00  0.00    -0.456 OA
ATOM      8  C   UNL     1      -0.132   0.021  -0.240  1.00  0.00     0.135 A 
ATOM      9  C   UNL     1       0.601  -0.668  -1.188  1.00  0.00     0.059 A 
ENDROOT
BRANCH   6  10
ATOM     10  O   UNL     1       5.490   0.424   1.146  1.00  0.00    -0.508 OA
ATOM     11  H   UNL     1       6.245   0.043   0.669  1.00  0.00     0.293 HD
ENDBRANCH   6  10
BRANCH   8  12
ATOM     12  C   UNL     1      -1.557   0.281  -0.039  1.00  0.00     0.025 A 
ATOM     13  C   UNL     1      -2.011   1.039   1.053  1.00  0.00     0.058 A 
ATOM     14  C   UNL     1      -2.507  -0.225  -0.940  1.00  0.00     0.058 A 
ATOM     15  C   UNL     1      -3.374   1.277   1.226  1.00  0.00     0.120 A 
ATOM     16  C   UNL     1      -3.865   0.023  -0.748  1.00  0.00     0.120 A 
ATOM     17  C   UNL     1      -4.310   0.773   0.332  1.00  0.00     0.092 A 
BRANCH  15  18
ATOM     18  O   UNL     1      -3.837   2.010   2.280  1.00  0.00    -0.508 OA
ATOM     19  H   UNL     1      -3.078   2.295   2.817  1.00  0.00     0.293 HD
ENDBRANCH  15  18
BRANCH  16  20
ATOM     20  O   UNL     1      -4.738  -0.496  -1.659  1.00  0.00    -0.508 OA
ATOM     21  H   UNL     1      -5.640  -0.244  -1.399  1.00  0.00     0.293 HD
ENDBRANCH  16  20
ENDBRANCH   8  12
TORSDOF 4
