REMARK SMILES CC1=C[C@H]2c3c(O)cc(-c4cc5ccc(O)cc5o4)cc3O[C@@]3(c4ccc(O)cc4O)Oc4cc(O)ccc4[C@H](C1)[C@@H]23
REMARK SMILES IDX 1 1 2 2 3 3 4 4 42 5 40 6 41 7 39 8 33 9 34 10 35 11 37 12
REMARK SMILES IDX 38 13 32 14 23 15 22 16 21 17 20 18 9 19 8 20 6 21 5 22
REMARK SMILES IDX 24 23 30 24 25 25 29 26 26 27 27 28 31 29 28 31 7 33 10 35
REMARK SMILES IDX 11 36 19 37 12 38 18 39 13 40 17 41 14 42 15 43 16 44 36 46
REMARK H PARENT 31 30 28 32 7 34 16 45 36 47
ROOT
ATOM      1  C   UNL     1      -3.017  -1.688   4.672  1.00  0.00     0.039 C 
ATOM      2  C   UNL     1      -2.657  -1.144   3.320  1.00  0.00    -0.076 C 
ATOM      3  C   UNL     1      -1.870  -0.063   3.172  1.00  0.00    -0.019 C 
ATOM      4  C   UNL     1      -1.517   0.590   1.847  1.00  0.00     0.061 C 
ATOM      5  C   UNL     1      -2.449   0.065   0.734  1.00  0.00     0.099 C 
ATOM      6  C   UNL     1      -2.568  -1.480   0.803  1.00  0.00     0.039 C 
ATOM      7  C   UNL     1      -3.233  -1.877   2.136  1.00  0.00     0.039 C 
ATOM      8  C   UNL     1      -3.274  -2.007  -0.426  1.00  0.00    -0.001 A 
ATOM      9  C   UNL     1      -3.348  -1.220  -1.579  1.00  0.00     0.131 A 
ATOM     10  C   UNL     1      -3.998  -1.688  -2.725  1.00  0.00     0.093 A 
ATOM     11  C   UNL     1      -4.548  -2.963  -2.733  1.00  0.00     0.119 A 
ATOM     12  C   UNL     1      -4.454  -3.777  -1.614  1.00  0.00     0.047 A 
ATOM     13  C   UNL     1      -3.814  -3.304  -0.467  1.00  0.00     0.011 A 
ATOM     14  O   UNL     1      -2.834   0.039  -1.682  1.00  0.00    -0.447 OA
ATOM     15  C   UNL     1      -1.922   0.479  -0.647  1.00  0.00     0.285 C 
ATOM     16  O   UNL     1      -0.635  -0.166  -0.844  1.00  0.00    -0.447 OA
ATOM     17  C   UNL     1       0.285   0.053   0.153  1.00  0.00     0.133 A 
ATOM     18  C   UNL     1       1.618  -0.143  -0.227  1.00  0.00     0.059 A 
ATOM     19  C   UNL     1       2.666   0.121   0.660  1.00  0.00     0.025 A 
ATOM     20  C   UNL     1       2.341   0.600   1.935  1.00  0.00     0.058 A 
ATOM     21  C   UNL     1       1.004   0.775   2.313  1.00  0.00     0.123 A 
ATOM     22  C   UNL     1      -0.054   0.455   1.451  1.00  0.00     0.044 A 
ENDROOT
BRANCH  15  23
ATOM     23  C   UNL     1      -1.792   1.985  -0.971  1.00  0.00     0.078 A 
ATOM     24  C   UNL     1      -2.627   2.987  -0.452  1.00  0.00     0.130 A 
ATOM     25  C   UNL     1      -0.823   2.396  -1.919  1.00  0.00     0.019 A 
ATOM     26  C   UNL     1      -2.466   4.332  -0.806  1.00  0.00     0.092 A 
ATOM     27  C   UNL     1      -0.656   3.737  -2.279  1.00  0.00     0.047 A 
ATOM     28  C   UNL     1      -1.479   4.695  -1.710  1.00  0.00     0.119 A 
BRANCH  24  29
ATOM     29  O   UNL     1      -3.639   2.667   0.406  1.00  0.00    -0.507 OA
ATOM     30  H   UNL     1      -4.164   3.464   0.593  1.00  0.00     0.293 HD
ENDBRANCH  24  29
BRANCH  28  31
ATOM     31  O   UNL     1      -1.357   6.016  -2.025  1.00  0.00    -0.508 OA
ATOM     32  H   UNL     1      -0.631   6.115  -2.663  1.00  0.00     0.293 HD
ENDBRANCH  28  31
ENDBRANCH  15  23
BRANCH  21  33
ATOM     33  O   UNL     1       0.732   1.301   3.547  1.00  0.00    -0.507 OA
ATOM     34  H   UNL     1       1.565   1.475   4.015  1.00  0.00     0.293 HD
ENDBRANCH  21  33
BRANCH  19  35
ATOM     35  C   UNL     1       4.061  -0.071   0.267  1.00  0.00     0.135 A 
ATOM     36  C   UNL     1       5.271  -0.012   0.933  1.00  0.00     0.059 A 
ATOM     37  O   UNL     1       4.281  -0.376  -1.049  1.00  0.00    -0.456 OA
ATOM     38  C   UNL     1       6.286  -0.296  -0.020  1.00  0.00     0.021 A 
ATOM     39  C   UNL     1       5.623  -0.512  -1.221  1.00  0.00     0.138 A 
ATOM     40  C   UNL     1       7.689  -0.395   0.003  1.00  0.00     0.016 A 
ATOM     41  C   UNL     1       6.258  -0.823  -2.420  1.00  0.00     0.093 A 
ATOM     42  C   UNL     1       8.362  -0.707  -1.189  1.00  0.00     0.047 A 
ATOM     43  C   UNL     1       7.648  -0.914  -2.369  1.00  0.00     0.119 A 
BRANCH  43  44
ATOM     44  O   UNL     1       8.294  -1.218  -3.535  1.00  0.00    -0.508 OA
ATOM     45  H   UNL     1       9.249  -1.262  -3.363  1.00  0.00     0.293 HD
ENDBRANCH  43  44
ENDBRANCH  19  35
BRANCH  11  46
ATOM     46  O   UNL     1      -5.184  -3.459  -3.832  1.00  0.00    -0.508 OA
ATOM     47  H   UNL     1      -5.159  -2.783  -4.529  1.00  0.00     0.293 HD
ENDBRANCH  11  46
TORSDOF 7
