REMARK SMILES CC1=C[C@H]2c3c(O)cc(-c4cc5ccc(O)cc5o4)cc3O[C@@]3(c4ccc(O)cc4O)Oc4cc(O)ccc4[C@H](C1)[C@@H]23
REMARK SMILES IDX 1 1 2 2 3 3 4 4 42 5 40 6 41 7 39 8 33 9 34 10 35 11 37 12
REMARK SMILES IDX 38 13 32 14 23 15 22 16 21 17 20 18 9 19 8 20 6 21 5 22
REMARK SMILES IDX 24 23 30 24 25 25 29 26 26 27 27 28 31 29 28 31 7 33 10 35
REMARK SMILES IDX 11 36 19 37 12 38 18 39 13 40 17 41 14 42 15 43 16 44 36 46
REMARK H PARENT 31 30 28 32 7 34 16 45 36 47
ROOT
ATOM      1  C   UNL     1      -2.101  -3.512  -3.990  1.00  0.00     0.039 C 
ATOM      2  C   UNL     1      -1.857  -2.568  -2.848  1.00  0.00    -0.076 C 
ATOM      3  C   UNL     1      -1.170  -2.933  -1.751  1.00  0.00    -0.019 C 
ATOM      4  C   UNL     1      -0.941  -2.039  -0.555  1.00  0.00     0.061 C 
ATOM      5  C   UNL     1      -1.948  -0.866  -0.536  1.00  0.00     0.099 C 
ATOM      6  C   UNL     1      -1.941  -0.188  -1.925  1.00  0.00     0.039 C 
ATOM      7  C   UNL     1      -2.447  -1.185  -2.992  1.00  0.00     0.039 C 
ATOM      8  C   UNL     1      -2.685   1.115  -1.845  1.00  0.00    -0.001 A 
ATOM      9  C   UNL     1      -2.390   1.921  -0.747  1.00  0.00     0.131 A 
ATOM     10  C   UNL     1      -2.905   3.212  -0.635  1.00  0.00     0.093 A 
ATOM     11  C   UNL     1      -3.774   3.677  -1.613  1.00  0.00     0.119 A 
ATOM     12  C   UNL     1      -4.106   2.882  -2.703  1.00  0.00     0.047 A 
ATOM     13  C   UNL     1      -3.552   1.606  -2.828  1.00  0.00     0.011 A 
ATOM     14  O   UNL     1      -1.514   1.495   0.213  1.00  0.00    -0.447 OA
ATOM     15  C   UNL     1      -1.691   0.117   0.660  1.00  0.00     0.285 C 
ATOM     16  O   UNL     1      -0.509  -0.224   1.433  1.00  0.00    -0.447 OA
ATOM     17  C   UNL     1       0.580  -0.570   0.683  1.00  0.00     0.133 A 
ATOM     18  C   UNL     1       1.812  -0.051   1.087  1.00  0.00     0.059 A 
ATOM     19  C   UNL     1       2.980  -0.395   0.405  1.00  0.00     0.025 A 
ATOM     20  C   UNL     1       2.867  -1.274  -0.680  1.00  0.00     0.058 A 
ATOM     21  C   UNL     1       1.626  -1.797  -1.068  1.00  0.00     0.123 A 
ATOM     22  C   UNL     1       0.456  -1.475  -0.377  1.00  0.00     0.044 A 
ENDROOT
BRANCH  15  23
ATOM     23  C   UNL     1      -2.784   0.097   1.765  1.00  0.00     0.078 A 
ATOM     24  C   UNL     1      -3.425  -1.071   2.217  1.00  0.00     0.130 A 
ATOM     25  C   UNL     1      -3.103   1.290   2.456  1.00  0.00     0.019 A 
ATOM     26  C   UNL     1      -4.392  -1.043   3.233  1.00  0.00     0.092 A 
ATOM     27  C   UNL     1      -4.062   1.328   3.471  1.00  0.00     0.047 A 
ATOM     28  C   UNL     1      -4.708   0.163   3.845  1.00  0.00     0.119 A 
BRANCH  24  29
ATOM     29  O   UNL     1      -3.092  -2.286   1.687  1.00  0.00    -0.507 OA
ATOM     30  H   UNL     1      -3.521  -2.992   2.198  1.00  0.00     0.293 HD
ENDBRANCH  24  29
BRANCH  28  31
ATOM     31  O   UNL     1      -5.639   0.242   4.837  1.00  0.00    -0.508 OA
ATOM     32  H   UNL     1      -6.015  -0.639   4.991  1.00  0.00     0.293 HD
ENDBRANCH  28  31
ENDBRANCH  15  23
BRANCH  21  33
ATOM     33  O   UNL     1       1.672  -2.620  -2.156  1.00  0.00    -0.507 OA
ATOM     34  H   UNL     1       0.866  -2.471  -2.677  1.00  0.00     0.293 HD
ENDBRANCH  21  33
BRANCH  19  35
ATOM     35  C   UNL     1       4.273   0.149   0.815  1.00  0.00     0.135 A 
ATOM     36  C   UNL     1       4.685   1.003   1.822  1.00  0.00     0.059 A 
ATOM     37  O   UNL     1       5.357  -0.236   0.074  1.00  0.00    -0.456 OA
ATOM     38  C   UNL     1       6.091   1.150   1.695  1.00  0.00     0.021 A 
ATOM     39  C   UNL     1       6.453   0.369   0.606  1.00  0.00     0.138 A 
ATOM     40  C   UNL     1       7.096   1.857   2.379  1.00  0.00     0.016 A 
ATOM     41  C   UNL     1       7.757   0.230   0.133  1.00  0.00     0.093 A 
ATOM     42  C   UNL     1       8.419   1.742   1.931  1.00  0.00     0.047 A 
ATOM     43  C   UNL     1       8.731   0.943   0.832  1.00  0.00     0.119 A 
BRANCH  43  44
ATOM     44  O   UNL     1      10.044   0.883   0.457  1.00  0.00    -0.508 OA
ATOM     45  H   UNL     1      10.119   0.296  -0.314  1.00  0.00     0.293 HD
ENDBRANCH  43  44
ENDBRANCH  19  35
BRANCH  11  46
ATOM     46  O   UNL     1      -4.322   4.924  -1.545  1.00  0.00    -0.508 OA
ATOM     47  H   UNL     1      -3.998   5.361  -0.740  1.00  0.00     0.293 HD
ENDBRANCH  11  46
TORSDOF 7
