REMARK SMILES CC1=C[C@H]2c3c(O)cc(-c4cc5ccc(O)cc5o4)cc3O[C@@]3(c4ccc(O)cc4O)Oc4cc(O)ccc4[C@H](C1)[C@@H]23
REMARK SMILES IDX 1 1 2 2 3 3 4 4 42 5 40 6 41 7 39 8 33 9 34 10 35 11 37 12
REMARK SMILES IDX 38 13 32 14 23 15 22 16 21 17 20 18 9 19 8 20 6 21 5 22
REMARK SMILES IDX 24 23 30 24 25 25 29 26 26 27 27 28 31 29 28 31 7 33 10 35
REMARK SMILES IDX 11 36 19 37 12 38 18 39 13 40 17 41 14 42 15 43 16 44 36 46
REMARK H PARENT 31 30 28 32 7 34 16 45 36 47
ROOT
ATOM      1  C   UNL     1      -1.804  -5.366  -0.809  1.00  0.00     0.039 C 
ATOM      2  C   UNL     1      -1.764  -3.935  -0.358  1.00  0.00    -0.076 C 
ATOM      3  C   UNL     1      -0.773  -3.457   0.415  1.00  0.00    -0.019 C 
ATOM      4  C   UNL     1      -0.695  -2.047   0.970  1.00  0.00     0.061 C 
ATOM      5  C   UNL     1      -2.061  -1.342   0.815  1.00  0.00     0.099 C 
ATOM      6  C   UNL     1      -2.625  -1.561  -0.612  1.00  0.00     0.039 C 
ATOM      7  C   UNL     1      -2.902  -3.063  -0.824  1.00  0.00     0.039 C 
ATOM      8  C   UNL     1      -3.822  -0.670  -0.851  1.00  0.00    -0.001 A 
ATOM      9  C   UNL     1      -4.029   0.452  -0.044  1.00  0.00     0.131 A 
ATOM     10  C   UNL     1      -5.131   1.289  -0.245  1.00  0.00     0.093 A 
ATOM     11  C   UNL     1      -6.014   1.024  -1.283  1.00  0.00     0.119 A 
ATOM     12  C   UNL     1      -5.810  -0.061  -2.122  1.00  0.00     0.047 A 
ATOM     13  C   UNL     1      -4.715  -0.902  -1.911  1.00  0.00     0.011 A 
ATOM     14  O   UNL     1      -3.217   0.806   0.992  1.00  0.00    -0.447 OA
ATOM     15  C   UNL     1      -1.926   0.162   1.088  1.00  0.00     0.285 C 
ATOM     16  O   UNL     1      -1.033   0.743   0.109  1.00  0.00    -0.447 OA
ATOM     17  C   UNL     1       0.182   0.113  -0.021  1.00  0.00     0.133 A 
ATOM     18  C   UNL     1       1.186   0.897  -0.604  1.00  0.00     0.059 A 
ATOM     19  C   UNL     1       2.493   0.419  -0.728  1.00  0.00     0.025 A 
ATOM     20  C   UNL     1       2.770  -0.862  -0.236  1.00  0.00     0.058 A 
ATOM     21  C   UNL     1       1.759  -1.647   0.329  1.00  0.00     0.123 A 
ATOM     22  C   UNL     1       0.432  -1.200   0.400  1.00  0.00     0.044 A 
ENDROOT
BRANCH  15  23
ATOM     23  C   UNL     1      -1.491   0.592   2.503  1.00  0.00     0.078 A 
ATOM     24  C   UNL     1      -0.929   1.860   2.759  1.00  0.00     0.130 A 
ATOM     25  C   UNL     1      -1.719  -0.237   3.622  1.00  0.00     0.019 A 
ATOM     26  C   UNL     1      -0.552   2.258   4.044  1.00  0.00     0.092 A 
ATOM     27  C   UNL     1      -1.343   0.157   4.911  1.00  0.00     0.047 A 
ATOM     28  C   UNL     1      -0.757   1.396   5.111  1.00  0.00     0.119 A 
BRANCH  24  29
ATOM     29  O   UNL     1      -0.728   2.803   1.785  1.00  0.00    -0.507 OA
ATOM     30  H   UNL     1      -1.018   2.432   0.931  1.00  0.00     0.293 HD
ENDBRANCH  24  29
BRANCH  28  31
ATOM     31  O   UNL     1      -0.407   1.740   6.383  1.00  0.00    -0.508 OA
ATOM     32  H   UNL     1      -0.013   2.628   6.362  1.00  0.00     0.293 HD
ENDBRANCH  28  31
ENDBRANCH  15  23
BRANCH  21  33
ATOM     33  O   UNL     1       2.088  -2.867   0.851  1.00  0.00    -0.507 OA
ATOM     34  H   UNL     1       3.042  -3.016   0.737  1.00  0.00     0.293 HD
ENDBRANCH  21  33
BRANCH  19  35
ATOM     35  C   UNL     1       3.538   1.247  -1.327  1.00  0.00     0.135 A 
ATOM     36  C   UNL     1       3.582   2.536  -1.827  1.00  0.00     0.059 A 
ATOM     37  O   UNL     1       4.772   0.669  -1.452  1.00  0.00    -0.456 OA
ATOM     38  C   UNL     1       4.908   2.763  -2.280  1.00  0.00     0.021 A 
ATOM     39  C   UNL     1       5.598   1.585  -2.027  1.00  0.00     0.138 A 
ATOM     40  C   UNL     1       5.598   3.834  -2.875  1.00  0.00     0.016 A 
ATOM     41  C   UNL     1       6.945   1.382  -2.323  1.00  0.00     0.093 A 
ATOM     42  C   UNL     1       6.954   3.664  -3.187  1.00  0.00     0.047 A 
ATOM     43  C   UNL     1       7.603   2.461  -2.913  1.00  0.00     0.119 A 
BRANCH  43  44
ATOM     44  O   UNL     1       8.925   2.376  -3.247  1.00  0.00    -0.508 OA
ATOM     45  H   UNL     1       9.251   1.493  -3.005  1.00  0.00     0.293 HD
ENDBRANCH  43  44
ENDBRANCH  19  35
BRANCH  11  46
ATOM     46  O   UNL     1      -7.097   1.818  -1.518  1.00  0.00    -0.508 OA
ATOM     47  H   UNL     1      -7.111   2.527  -0.854  1.00  0.00     0.293 HD
ENDBRANCH  11  46
TORSDOF 7
