REMARK SMILES COC[C@H]1Cc2cc3c(c(OC)c2[C@@H](c2ccc(OC)c(OC)c2)[C@@H]1COC)OCO3
REMARK SMILES IDX 4 1 5 2 6 3 7 4 8 5 9 6 10 7 13 8 14 9 25 10 29 11 30 12
REMARK SMILES IDX 31 13 3 14 2 15 1 16 26 17 27 18 28 19 15 20 24 21 16 22
REMARK SMILES IDX 21 23 17 24 18 25 22 26 23 27 19 28 20 29 11 30 12 31
REMARK H PARENT
ROOT
ATOM      1  C   UNL     1      -2.718  -0.686  -0.445  1.00  0.00     0.026 C 
ATOM      2  C   UNL     1      -2.922   0.482   0.534  1.00  0.00     0.042 C 
ATOM      3  C   UNL     1      -1.997   1.632   0.230  1.00  0.00    -0.036 A 
ATOM      4  C   UNL     1      -2.411   2.930   0.572  1.00  0.00     0.055 A 
ATOM      5  C   UNL     1      -1.596   3.987   0.238  1.00  0.00     0.169 A 
ATOM      6  C   UNL     1      -0.398   3.807  -0.412  1.00  0.00     0.207 A 
ATOM      7  C   UNL     1       0.059   2.540  -0.738  1.00  0.00     0.168 A 
ATOM      8  C   UNL     1      -0.739   1.419  -0.389  1.00  0.00     0.009 A 
ATOM      9  C   UNL     1      -0.248  -0.000  -0.694  1.00  0.00     0.059 C 
ATOM     10  C   UNL     1      -1.243  -1.156  -0.343  1.00  0.00     0.033 C 
ATOM     11  O   UNL     1       0.205   4.999  -0.685  1.00  0.00    -0.450 OA
ATOM     12  C   UNL     1      -0.739   5.932  -0.127  1.00  0.00     0.468 C 
ATOM     13  O   UNL     1      -1.882   5.296   0.472  1.00  0.00    -0.453 OA
ENDROOT
BRANCH   1  14
ATOM     14  C   UNL     1      -3.736  -1.803  -0.159  1.00  0.00     0.164 C 
BRANCH  14  15
ATOM     15  O   UNL     1      -5.060  -1.263  -0.185  1.00  0.00    -0.384 OA
ATOM     16  C   UNL     1      -6.038  -2.268   0.055  1.00  0.00     0.194 C 
ENDBRANCH  14  15
ENDBRANCH   1  14
BRANCH  10  17
ATOM     17  C   UNL     1      -0.951  -2.381  -1.239  1.00  0.00     0.164 C 
BRANCH  17  18
ATOM     18  O   UNL     1      -1.456  -3.586  -0.660  1.00  0.00    -0.384 OA
ATOM     19  C   UNL     1      -0.528  -4.198   0.230  1.00  0.00     0.194 C 
ENDBRANCH  17  18
ENDBRANCH  10  17
BRANCH   9  20
ATOM     20  C   UNL     1       1.098  -0.301  -0.016  1.00  0.00    -0.036 A 
ATOM     21  C   UNL     1       2.213  -0.664  -0.790  1.00  0.00     0.054 A 
ATOM     22  C   UNL     1       1.244  -0.217   1.375  1.00  0.00     0.008 A 
ATOM     23  C   UNL     1       3.448  -0.942  -0.190  1.00  0.00     0.161 A 
ATOM     24  C   UNL     1       2.470  -0.500   1.983  1.00  0.00     0.051 A 
ATOM     25  C   UNL     1       3.576  -0.866   1.210  1.00  0.00     0.160 A 
BRANCH  23  26
ATOM     26  O   UNL     1       4.580  -1.302  -0.881  1.00  0.00    -0.493 OA
ATOM     27  C   UNL     1       4.535  -1.225  -2.299  1.00  0.00     0.278 C 
ENDBRANCH  23  26
BRANCH  25  28
ATOM     28  O   UNL     1       4.816  -1.161   1.721  1.00  0.00    -0.493 OA
ATOM     29  C   UNL     1       4.986  -1.076   3.128  1.00  0.00     0.278 C 
ENDBRANCH  25  28
ENDBRANCH   9  20
BRANCH   7  30
ATOM     30  O   UNL     1       1.203   2.300  -1.452  1.00  0.00    -0.492 OA
ATOM     31  C   UNL     1       2.321   3.099  -1.076  1.00  0.00     0.278 C 
ENDBRANCH   7  30
TORSDOF 8
