REMARK SMILES COC[C@H]1Cc2cc3c(c(OC)c2[C@@H](c2ccc(OC)c(OC)c2)[C@@H]1COC)OCO3
REMARK SMILES IDX 4 1 5 2 6 3 7 4 8 5 9 6 10 7 13 8 14 9 25 10 29 11 30 12
REMARK SMILES IDX 31 13 3 14 2 15 1 16 26 17 27 18 28 19 15 20 24 21 16 22
REMARK SMILES IDX 21 23 17 24 18 25 22 26 23 27 19 28 20 29 11 30 12 31
REMARK H PARENT
ROOT
ATOM      1  C   UNL     1      -1.717   2.096  -0.797  1.00  0.00     0.026 C 
ATOM      2  C   UNL     1      -1.915   1.064  -1.915  1.00  0.00     0.042 C 
ATOM      3  C   UNL     1      -2.080  -0.313  -1.333  1.00  0.00    -0.036 A 
ATOM      4  C   UNL     1      -2.977  -1.213  -1.928  1.00  0.00     0.055 A 
ATOM      5  C   UNL     1      -3.118  -2.462  -1.363  1.00  0.00     0.169 A 
ATOM      6  C   UNL     1      -2.402  -2.848  -0.256  1.00  0.00     0.207 A 
ATOM      7  C   UNL     1      -1.486  -1.995   0.338  1.00  0.00     0.168 A 
ATOM      8  C   UNL     1      -1.318  -0.698  -0.204  1.00  0.00     0.009 A 
ATOM      9  C   UNL     1      -0.279   0.254   0.391  1.00  0.00     0.059 C 
ATOM     10  C   UNL     1      -0.443   1.775   0.029  1.00  0.00     0.033 C 
ATOM     11  O   UNL     1      -2.729  -4.110   0.141  1.00  0.00    -0.450 OA
ATOM     12  C   UNL     1      -3.716  -4.469  -0.843  1.00  0.00     0.468 C 
ATOM     13  O   UNL     1      -3.966  -3.429  -1.807  1.00  0.00    -0.453 OA
ENDROOT
BRANCH   1  14
ATOM     14  C   UNL     1      -1.662   3.512  -1.408  1.00  0.00     0.164 C 
BRANCH  14  15
ATOM     15  O   UNL     1      -2.800   3.805  -2.220  1.00  0.00    -0.384 OA
ATOM     16  C   UNL     1      -3.959   4.142  -1.469  1.00  0.00     0.194 C 
ENDBRANCH  14  15
ENDBRANCH   1  14
BRANCH  10  17
ATOM     17  C   UNL     1      -0.413   2.628   1.320  1.00  0.00     0.164 C 
BRANCH  17  18
ATOM     18  O   UNL     1       0.808   2.412   2.025  1.00  0.00    -0.384 OA
ATOM     19  C   UNL     1       0.869   3.167   3.227  1.00  0.00     0.194 C 
ENDBRANCH  17  18
ENDBRANCH  10  17
BRANCH   9  20
ATOM     20  C   UNL     1       1.149  -0.217   0.080  1.00  0.00    -0.036 A 
ATOM     21  C   UNL     1       2.062  -0.420   1.129  1.00  0.00     0.054 A 
ATOM     22  C   UNL     1       1.578  -0.457  -1.232  1.00  0.00     0.008 A 
ATOM     23  C   UNL     1       3.369  -0.858   0.881  1.00  0.00     0.161 A 
ATOM     24  C   UNL     1       2.878  -0.899  -1.491  1.00  0.00     0.051 A 
ATOM     25  C   UNL     1       3.780  -1.105  -0.443  1.00  0.00     0.160 A 
BRANCH  23  26
ATOM     26  O   UNL     1       4.308  -1.082   1.858  1.00  0.00    -0.493 OA
ATOM     27  C   UNL     1       3.971  -0.703   3.185  1.00  0.00     0.278 C 
ENDBRANCH  23  26
BRANCH  25  28
ATOM     28  O   UNL     1       5.072  -1.540  -0.604  1.00  0.00    -0.493 OA
ATOM     29  C   UNL     1       5.521  -1.790  -1.928  1.00  0.00     0.278 C 
ENDBRANCH  25  28
ENDBRANCH   9  20
BRANCH   7  30
ATOM     30  O   UNL     1      -0.777  -2.315   1.464  1.00  0.00    -0.492 OA
ATOM     31  C   UNL     1      -0.110  -3.573   1.377  1.00  0.00     0.278 C 
ENDBRANCH   7  30
TORSDOF 8
