REMARK SMILES COC[C@H]1Cc2cc3c(c(OC)c2[C@@H](c2ccc(OC)c(OC)c2)[C@@H]1COC)OCO3
REMARK SMILES IDX 4 1 5 2 6 3 7 4 8 5 9 6 10 7 13 8 14 9 25 10 29 11 30 12
REMARK SMILES IDX 31 13 3 14 2 15 1 16 26 17 27 18 28 19 15 20 24 21 16 22
REMARK SMILES IDX 21 23 17 24 18 25 22 26 23 27 19 28 20 29 11 30 12 31
REMARK H PARENT
ROOT
ATOM      1  C   UNL     1      -2.252  -1.367  -1.167  1.00  0.00     0.026 C 
ATOM      2  C   UNL     1      -3.007  -0.927   0.095  1.00  0.00     0.042 C 
ATOM      3  C   UNL     1      -2.617   0.467   0.513  1.00  0.00    -0.036 A 
ATOM      4  C   UNL     1      -3.554   1.238   1.223  1.00  0.00     0.055 A 
ATOM      5  C   UNL     1      -3.224   2.533   1.548  1.00  0.00     0.169 A 
ATOM      6  C   UNL     1      -2.014   3.086   1.203  1.00  0.00     0.207 A 
ATOM      7  C   UNL     1      -1.052   2.347   0.531  1.00  0.00     0.168 A 
ATOM      8  C   UNL     1      -1.337   0.998   0.200  1.00  0.00     0.009 A 
ATOM      9  C   UNL     1      -0.286   0.133  -0.515  1.00  0.00     0.059 C 
ATOM     10  C   UNL     1      -0.738  -1.330  -0.846  1.00  0.00     0.033 C 
ATOM     11  O   UNL     1      -1.936   4.394   1.581  1.00  0.00    -0.450 OA
ATOM     12  C   UNL     1      -3.217   4.587   2.207  1.00  0.00     0.468 C 
ATOM     13  O   UNL     1      -4.040   3.406   2.198  1.00  0.00    -0.453 OA
ENDROOT
BRANCH   1  14
ATOM     14  C   UNL     1      -2.762  -2.743  -1.621  1.00  0.00     0.164 C 
BRANCH  14  15
ATOM     15  O   UNL     1      -2.416  -3.736  -0.657  1.00  0.00    -0.384 OA
ATOM     16  C   UNL     1      -2.868  -5.026  -1.048  1.00  0.00     0.194 C 
ENDBRANCH  14  15
ENDBRANCH   1  14
BRANCH  10  17
ATOM     17  C   UNL     1       0.125  -1.927  -1.974  1.00  0.00     0.164 C 
BRANCH  17  18
ATOM     18  O   UNL     1      -0.156  -1.264  -3.207  1.00  0.00    -0.384 OA
ATOM     19  C   UNL     1       0.654  -1.761  -4.265  1.00  0.00     0.194 C 
ENDBRANCH  17  18
ENDBRANCH  10  17
BRANCH   9  20
ATOM     20  C   UNL     1       1.039   0.073   0.261  1.00  0.00    -0.036 A 
ATOM     21  C   UNL     1       2.230   0.499  -0.353  1.00  0.00     0.054 A 
ATOM     22  C   UNL     1       1.092  -0.398   1.579  1.00  0.00     0.008 A 
ATOM     23  C   UNL     1       3.449   0.460   0.334  1.00  0.00     0.161 A 
ATOM     24  C   UNL     1       2.305  -0.450   2.269  1.00  0.00     0.051 A 
ATOM     25  C   UNL     1       3.489  -0.026   1.656  1.00  0.00     0.160 A 
BRANCH  23  26
ATOM     26  O   UNL     1       4.650   0.863  -0.198  1.00  0.00    -0.493 OA
ATOM     27  C   UNL     1       4.617   1.524  -1.455  1.00  0.00     0.278 C 
ENDBRANCH  23  26
BRANCH  25  28
ATOM     28  O   UNL     1       4.723  -0.038   2.259  1.00  0.00    -0.493 OA
ATOM     29  C   UNL     1       4.801  -0.539   3.585  1.00  0.00     0.278 C 
ENDBRANCH  25  28
ENDBRANCH   9  20
BRANCH   7  30
ATOM     30  O   UNL     1       0.132   2.876   0.089  1.00  0.00    -0.492 OA
ATOM     31  C   UNL     1       0.815   3.675   1.052  1.00  0.00     0.278 C 
ENDBRANCH   7  30
TORSDOF 8
