REMARK SMILES COc1c(O)c(C)cc2c1C(=O)c1c(O)cccc1C2=O
REMARK SMILES IDX 7 1 6 2 8 3 9 4 10 5 3 6 4 7 11 8 12 9 13 10 19 11 20 12
REMARK SMILES IDX 21 13 18 14 17 15 16 16 14 17 5 18 2 20 1 21 15 22
REMARK H PARENT 5 19 15 23
ROOT
ATOM      1  C   UNL     1      -4.046  -1.865  -0.064  1.00  0.00     0.048 C 
ATOM      2  C   UNL     1      -2.771  -1.082   0.058  1.00  0.00    -0.005 A 
ATOM      3  C   UNL     1      -1.544  -1.751  -0.040  1.00  0.00     0.020 A 
ATOM      4  C   UNL     1      -0.327  -1.056   0.073  1.00  0.00     0.038 A 
ATOM      5  C   UNL     1      -0.312   0.325   0.273  1.00  0.00     0.080 A 
ATOM      6  C   UNL     1      -1.537   1.004   0.375  1.00  0.00     0.172 A 
ATOM      7  C   UNL     1      -2.753   0.298   0.288  1.00  0.00     0.161 A 
ATOM      8  C   UNL     1       0.993   1.028   0.359  1.00  0.00     0.202 C 
ATOM      9  O   UNL     1       1.083   2.251   0.414  1.00  0.00    -0.288 OA
ATOM     10  C   UNL     1       2.250   0.251   0.353  1.00  0.00     0.076 A 
ATOM     11  C   UNL     1       2.217  -1.129   0.171  1.00  0.00     0.037 A 
ATOM     12  C   UNL     1       0.931  -1.824  -0.013  1.00  0.00     0.194 C 
ATOM     13  O   UNL     1       0.906  -3.030  -0.228  1.00  0.00    -0.289 OA
ATOM     14  C   UNL     1       3.407  -1.871   0.156  1.00  0.00     0.013 A 
ATOM     15  C   UNL     1       4.634  -1.230   0.326  1.00  0.00     0.005 A 
ATOM     16  C   UNL     1       4.675   0.151   0.507  1.00  0.00     0.047 A 
ATOM     17  C   UNL     1       3.490   0.886   0.518  1.00  0.00     0.127 A 
ENDROOT
BRANCH   7  18
ATOM     18  O   UNL     1      -3.916   1.007   0.441  1.00  0.00    -0.504 OA
ATOM     19  H   UNL     1      -4.652   0.402   0.619  1.00  0.00     0.293 HD
ENDBRANCH   7  18
BRANCH   6  20
ATOM     20  O   UNL     1      -1.571   2.344   0.671  1.00  0.00    -0.492 OA
ATOM     21  C   UNL     1      -1.810   3.117  -0.506  1.00  0.00     0.278 C 
ENDBRANCH   6  20
BRANCH  17  22
ATOM     22  O   UNL     1       3.622   2.237   0.696  1.00  0.00    -0.507 OA
ATOM     23  H   UNL     1       2.722   2.638   0.654  1.00  0.00     0.293 HD
ENDBRANCH  17  22
TORSDOF 3
