REMARK SMILES COc1c(O)c(C)cc2c1C(=O)c1c(O)cccc1C2=O
REMARK SMILES IDX 7 1 6 2 8 3 9 4 10 5 3 6 4 7 11 8 12 9 13 10 19 11 20 12
REMARK SMILES IDX 21 13 18 14 17 15 16 16 14 17 5 18 2 20 1 21 15 22
REMARK H PARENT 5 19 15 23
ROOT
ATOM      1  C   UNL     1      -3.661  -1.144  -2.302  1.00  0.00     0.048 C 
ATOM      2  C   UNL     1      -2.544  -0.704  -1.400  1.00  0.00    -0.005 A 
ATOM      3  C   UNL     1      -1.223  -1.037  -1.731  1.00  0.00     0.020 A 
ATOM      4  C   UNL     1      -0.150  -0.648  -0.911  1.00  0.00     0.038 A 
ATOM      5  C   UNL     1      -0.373   0.091   0.252  1.00  0.00     0.080 A 
ATOM      6  C   UNL     1      -1.693   0.427   0.593  1.00  0.00     0.172 A 
ATOM      7  C   UNL     1      -2.767   0.012  -0.218  1.00  0.00     0.161 A 
ATOM      8  C   UNL     1       0.789   0.507   1.077  1.00  0.00     0.202 C 
ATOM      9  O   UNL     1       0.680   1.257   2.043  1.00  0.00    -0.288 OA
ATOM     10  C   UNL     1       2.145   0.035   0.730  1.00  0.00     0.076 A 
ATOM     11  C   UNL     1       2.349  -0.718  -0.424  1.00  0.00     0.037 A 
ATOM     12  C   UNL     1       1.215  -1.052  -1.302  1.00  0.00     0.194 C 
ATOM     13  O   UNL     1       1.403  -1.668  -2.345  1.00  0.00    -0.289 OA
ATOM     14  C   UNL     1       3.636  -1.161  -0.764  1.00  0.00     0.013 A 
ATOM     15  C   UNL     1       4.722  -0.850   0.055  1.00  0.00     0.005 A 
ATOM     16  C   UNL     1       4.526  -0.096   1.209  1.00  0.00     0.047 A 
ATOM     17  C   UNL     1       3.246   0.345   1.542  1.00  0.00     0.127 A 
ENDROOT
BRANCH   7  18
ATOM     18  O   UNL     1      -4.036   0.329   0.189  1.00  0.00    -0.504 OA
ATOM     19  H   UNL     1      -4.683  -0.213  -0.288  1.00  0.00     0.293 HD
ENDBRANCH   7  18
BRANCH   6  20
ATOM     20  O   UNL     1      -1.968   1.066   1.777  1.00  0.00    -0.492 OA
ATOM     21  C   UNL     1      -2.199   2.458   1.559  1.00  0.00     0.278 C 
ENDBRANCH   6  20
BRANCH  17  22
ATOM     22  O   UNL     1       3.145   1.086   2.690  1.00  0.00    -0.507 OA
ATOM     23  H   UNL     1       2.203   1.358   2.793  1.00  0.00     0.293 HD
ENDBRANCH  17  22
TORSDOF 3
