REMARK SMILES COc1c(O)c(C)cc2c1C(=O)c1c(O)cccc1C2=O
REMARK SMILES IDX 7 1 6 2 8 3 9 4 10 5 3 6 4 7 11 8 12 9 13 10 19 11 20 12
REMARK SMILES IDX 21 13 18 14 17 15 16 16 14 17 5 18 2 20 1 21 15 22
REMARK H PARENT 5 19 15 23
ROOT
ATOM      1  C   UNL     1      -4.136  -1.829   0.163  1.00  0.00     0.048 C 
ATOM      2  C   UNL     1      -2.833  -1.087   0.104  1.00  0.00    -0.005 A 
ATOM      3  C   UNL     1      -1.617  -1.779   0.094  1.00  0.00     0.020 A 
ATOM      4  C   UNL     1      -0.394  -1.085   0.076  1.00  0.00     0.038 A 
ATOM      5  C   UNL     1      -0.364   0.312   0.050  1.00  0.00     0.080 A 
ATOM      6  C   UNL     1      -1.583   1.007   0.031  1.00  0.00     0.172 A 
ATOM      7  C   UNL     1      -2.796   0.306   0.094  1.00  0.00     0.161 A 
ATOM      8  C   UNL     1       0.946   1.009   0.058  1.00  0.00     0.202 C 
ATOM      9  O   UNL     1       1.036   2.232   0.018  1.00  0.00    -0.288 OA
ATOM     10  C   UNL     1       2.198   0.226   0.106  1.00  0.00     0.076 A 
ATOM     11  C   UNL     1       2.153  -1.165   0.121  1.00  0.00     0.037 A 
ATOM     12  C   UNL     1       0.858  -1.869   0.094  1.00  0.00     0.194 C 
ATOM     13  O   UNL     1       0.823  -3.093   0.086  1.00  0.00    -0.289 OA
ATOM     14  C   UNL     1       3.339  -1.913   0.162  1.00  0.00     0.013 A 
ATOM     15  C   UNL     1       4.574  -1.265   0.189  1.00  0.00     0.005 A 
ATOM     16  C   UNL     1       4.627   0.127   0.174  1.00  0.00     0.047 A 
ATOM     17  C   UNL     1       3.446   0.867   0.133  1.00  0.00     0.127 A 
ENDROOT
BRANCH   7  18
ATOM     18  O   UNL     1      -3.975   1.001   0.161  1.00  0.00    -0.504 OA
ATOM     19  H   UNL     1      -3.731   1.935   0.309  1.00  0.00     0.293 HD
ENDBRANCH   7  18
BRANCH   6  20
ATOM     20  O   UNL     1      -1.666   2.378   0.029  1.00  0.00    -0.492 OA
ATOM     21  C   UNL     1      -1.637   2.877  -1.313  1.00  0.00     0.278 C 
ENDBRANCH   6  20
BRANCH  17  22
ATOM     22  O   UNL     1       3.590   2.229   0.121  1.00  0.00    -0.507 OA
ATOM     23  H   UNL     1       2.691   2.630   0.095  1.00  0.00     0.293 HD
ENDBRANCH  17  22
TORSDOF 3
