REMARK SMILES COc1cc2c(c(O)c1OC)C(=O)c1c(cc(C)c(O)c1OC)C2=O
REMARK SMILES IDX 18 1 17 2 16 3 15 4 14 5 21 6 19 7 12 8 13 9 6 10 7 11 9 12
REMARK SMILES IDX 3 13 4 14 5 15 24 16 25 17 20 18 22 20 23 21 8 22 2 24 1 25
REMARK SMILES IDX 10 26 11 27
REMARK H PARENT 20 19 8 23
ROOT
ATOM      1  C   UNL     1      -5.087   2.222   0.446  1.00  0.00     0.048 C 
ATOM      2  C   UNL     1      -3.878   1.334   0.434  1.00  0.00    -0.005 A 
ATOM      3  C   UNL     1      -2.646   1.812  -0.024  1.00  0.00     0.020 A 
ATOM      4  C   UNL     1      -1.502   0.993  -0.002  1.00  0.00     0.038 A 
ATOM      5  C   UNL     1      -1.574  -0.323   0.461  1.00  0.00     0.080 A 
ATOM      6  C   UNL     1      -2.814  -0.813   0.894  1.00  0.00     0.172 A 
ATOM      7  C   UNL     1      -3.939   0.025   0.910  1.00  0.00     0.161 A 
ATOM      8  C   UNL     1      -0.340  -1.146   0.493  1.00  0.00     0.202 C 
ATOM      9  O   UNL     1      -0.345  -2.311   0.878  1.00  0.00    -0.288 OA
ATOM     10  C   UNL     1       0.947  -0.573   0.046  1.00  0.00     0.080 A 
ATOM     11  C   UNL     1       2.127  -1.332   0.081  1.00  0.00     0.173 A 
ATOM     12  C   UNL     1       3.337  -0.770  -0.351  1.00  0.00     0.203 A 
ATOM     13  C   UNL     1       3.387   0.544  -0.844  1.00  0.00     0.165 A 
ATOM     14  C   UNL     1       2.211   1.295  -0.869  1.00  0.00     0.063 A 
ATOM     15  C   UNL     1       0.999   0.736  -0.427  1.00  0.00     0.041 A 
ATOM     16  C   UNL     1      -0.223   1.560  -0.473  1.00  0.00     0.194 C 
ATOM     17  O   UNL     1      -0.173   2.708  -0.899  1.00  0.00    -0.289 OA
ENDROOT
BRANCH   7  18
ATOM     18  O   UNL     1      -5.123  -0.441   1.415  1.00  0.00    -0.504 OA
ATOM     19  H   UNL     1      -4.919  -1.298   1.838  1.00  0.00     0.293 HD
ENDBRANCH   7  18
BRANCH   6  20
ATOM     20  O   UNL     1      -2.989  -2.082   1.391  1.00  0.00    -0.492 OA
ATOM     21  C   UNL     1      -3.270  -3.000   0.328  1.00  0.00     0.278 C 
ENDBRANCH   6  20
BRANCH  11  22
ATOM     22  O   UNL     1       2.148  -2.629   0.533  1.00  0.00    -0.504 OA
ATOM     23  H   UNL     1       1.233  -2.890   0.782  1.00  0.00     0.293 HD
ENDBRANCH  11  22
BRANCH  13  24
ATOM     24  O   UNL     1       4.614   0.993  -1.253  1.00  0.00    -0.493 OA
ATOM     25  C   UNL     1       4.673   2.271  -1.873  1.00  0.00     0.278 C 
ENDBRANCH  13  24
BRANCH  12  26
ATOM     26  O   UNL     1       4.477  -1.539  -0.372  1.00  0.00    -0.490 OA
ATOM     27  C   UNL     1       5.134  -1.476   0.892  1.00  0.00     0.278 C 
ENDBRANCH  12  26
TORSDOF 5
