REMARK SMILES COc1cc2c(c(O)c1OC)C(=O)c1c(cc(C)c(O)c1OC)C2=O
REMARK SMILES IDX 18 1 17 2 16 3 15 4 14 5 21 6 19 7 12 8 13 9 6 10 7 11 9 12
REMARK SMILES IDX 3 13 4 14 5 15 24 16 25 17 20 18 22 20 23 21 8 22 2 24 1 25
REMARK SMILES IDX 10 26 11 27
REMARK H PARENT 20 19 8 23
ROOT
ATOM      1  C   UNL     1       5.238  -1.745   0.683  1.00  0.00     0.048 C 
ATOM      2  C   UNL     1       3.976  -0.966   0.452  1.00  0.00    -0.005 A 
ATOM      3  C   UNL     1       2.744  -1.620   0.340  1.00  0.00     0.020 A 
ATOM      4  C   UNL     1       1.555  -0.890   0.161  1.00  0.00     0.038 A 
ATOM      5  C   UNL     1       1.578   0.504   0.075  1.00  0.00     0.080 A 
ATOM      6  C   UNL     1       2.815   1.160   0.158  1.00  0.00     0.172 A 
ATOM      7  C   UNL     1       3.989   0.426   0.381  1.00  0.00     0.161 A 
ATOM      8  C   UNL     1       0.300   1.239  -0.088  1.00  0.00     0.202 C 
ATOM      9  O   UNL     1       0.260   2.462  -0.182  1.00  0.00    -0.288 OA
ATOM     10  C   UNL     1      -0.980   0.500  -0.149  1.00  0.00     0.080 A 
ATOM     11  C   UNL     1      -2.199   1.179  -0.288  1.00  0.00     0.173 A 
ATOM     12  C   UNL     1      -3.402   0.459  -0.347  1.00  0.00     0.203 A 
ATOM     13  C   UNL     1      -3.405  -0.944  -0.290  1.00  0.00     0.165 A 
ATOM     14  C   UNL     1      -2.189  -1.612  -0.144  1.00  0.00     0.063 A 
ATOM     15  C   UNL     1      -0.984  -0.891  -0.075  1.00  0.00     0.041 A 
ATOM     16  C   UNL     1       0.281  -1.632   0.076  1.00  0.00     0.194 C 
ATOM     17  O   UNL     1       0.272  -2.856   0.131  1.00  0.00    -0.289 OA
ENDROOT
BRANCH   7  18
ATOM     18  O   UNL     1       5.178   1.086   0.546  1.00  0.00    -0.504 OA
ATOM     19  H   UNL     1       4.954   2.033   0.626  1.00  0.00     0.293 HD
ENDBRANCH   7  18
BRANCH   6  20
ATOM     20  O   UNL     1       2.946   2.526   0.109  1.00  0.00    -0.492 OA
ATOM     21  C   UNL     1       3.078   2.966  -1.247  1.00  0.00     0.278 C 
ENDBRANCH   6  20
BRANCH  11  22
ATOM     22  O   UNL     1      -2.269   2.549  -0.369  1.00  0.00    -0.504 OA
ATOM     23  H   UNL     1      -1.356   2.912  -0.333  1.00  0.00     0.293 HD
ENDBRANCH  11  22
BRANCH  13  24
ATOM     24  O   UNL     1      -4.630  -1.552  -0.368  1.00  0.00    -0.493 OA
ATOM     25  C   UNL     1      -4.656  -2.971  -0.442  1.00  0.00     0.278 C 
ENDBRANCH  13  24
BRANCH  12  26
ATOM     26  O   UNL     1      -4.587   1.127  -0.546  1.00  0.00    -0.490 OA
ATOM     27  C   UNL     1      -5.133   1.540   0.705  1.00  0.00     0.278 C 
ENDBRANCH  12  26
TORSDOF 5
