REMARK SMILES COc1cc2c(c(O)c1OC)C(=O)c1c(cc(C)c(O)c1OC)C2=O
REMARK SMILES IDX 18 1 17 2 16 3 15 4 14 5 21 6 19 7 12 8 13 9 6 10 7 11 9 12
REMARK SMILES IDX 3 13 4 14 5 15 24 16 25 17 20 18 22 20 23 21 8 22 2 24 1 25
REMARK SMILES IDX 10 26 11 27
REMARK H PARENT 20 19 8 23
ROOT
ATOM      1  C   UNL     1      -4.949   1.546  -2.149  1.00  0.00     0.048 C 
ATOM      2  C   UNL     1      -3.807   0.949  -1.381  1.00  0.00    -0.005 A 
ATOM      3  C   UNL     1      -2.489   1.335  -1.646  1.00  0.00     0.020 A 
ATOM      4  C   UNL     1      -1.413   0.750  -0.953  1.00  0.00     0.038 A 
ATOM      5  C   UNL     1      -1.637  -0.218   0.029  1.00  0.00     0.080 A 
ATOM      6  C   UNL     1      -2.960  -0.586   0.317  1.00  0.00     0.172 A 
ATOM      7  C   UNL     1      -4.022  -0.029  -0.411  1.00  0.00     0.161 A 
ATOM      8  C   UNL     1      -0.476  -0.830   0.719  1.00  0.00     0.202 C 
ATOM      9  O   UNL     1      -0.613  -1.676   1.598  1.00  0.00    -0.288 OA
ATOM     10  C   UNL     1       0.900  -0.422   0.362  1.00  0.00     0.080 A 
ATOM     11  C   UNL     1       2.011  -1.000   0.994  1.00  0.00     0.173 A 
ATOM     12  C   UNL     1       3.308  -0.597   0.643  1.00  0.00     0.203 A 
ATOM     13  C   UNL     1       3.515   0.400  -0.324  1.00  0.00     0.165 A 
ATOM     14  C   UNL     1       2.406   0.965  -0.954  1.00  0.00     0.063 A 
ATOM     15  C   UNL     1       1.106   0.554  -0.610  1.00  0.00     0.041 A 
ATOM     16  C   UNL     1      -0.042   1.176  -1.294  1.00  0.00     0.194 C 
ATOM     17  O   UNL     1       0.145   2.041  -2.142  1.00  0.00    -0.289 OA
ENDROOT
BRANCH   7  18
ATOM     18  O   UNL     1      -5.301  -0.460  -0.178  1.00  0.00    -0.504 OA
ATOM     19  H   UNL     1      -5.223  -1.243   0.401  1.00  0.00     0.293 HD
ENDBRANCH   7  18
BRANCH   6  20
ATOM     20  O   UNL     1      -3.289  -1.543   1.245  1.00  0.00    -0.492 OA
ATOM     21  C   UNL     1      -3.426  -0.953   2.543  1.00  0.00     0.278 C 
ENDBRANCH   6  20
BRANCH  11  22
ATOM     22  O   UNL     1       1.881  -1.966   1.962  1.00  0.00    -0.504 OA
ATOM     23  H   UNL     1       0.924  -2.132   2.114  1.00  0.00     0.293 HD
ENDBRANCH  11  22
BRANCH  13  24
ATOM     24  O   UNL     1       4.818   0.731  -0.585  1.00  0.00    -0.493 OA
ATOM     25  C   UNL     1       5.056   1.823  -1.464  1.00  0.00     0.278 C 
ENDBRANCH  13  24
BRANCH  12  26
ATOM     26  O   UNL     1       4.389  -1.122   1.310  1.00  0.00    -0.490 OA
ATOM     27  C   UNL     1       4.814  -2.329   0.681  1.00  0.00     0.278 C 
ENDBRANCH  12  26
TORSDOF 5
