REMARK SMILES CC1(C)CC[C@]2(C(=O)O)CC[C@]3(C)C(=CC[C@@H]4[C@@]5(C)CC[C@H](O)C(C)(C)[C@@H]5CC[C@]43C)[C@@H]2C1
REMARK SMILES IDX 19 1 18 2 20 3 21 4 22 5 24 6 27 7 28 8 29 9 30 10 17 11
REMARK SMILES IDX 16 12 15 13 14 14 12 15 11 16 10 17 6 18 32 19 33 20 2 21
REMARK SMILES IDX 4 22 5 23 1 24 3 25 13 26 31 27 25 28 26 29 23 30 7 32 8 33
REMARK SMILES IDX 9 34
REMARK H PARENT 23 31 9 35
ROOT
ATOM      1  C   UNL     1       3.214   1.763   1.326  1.00  0.00     0.012 C 
ATOM      2  C   UNL     1       2.893   0.357   0.765  1.00  0.00    -0.025 C 
ATOM      3  C   UNL     1       3.439  -0.688   1.803  1.00  0.00     0.010 C 
ATOM      4  C   UNL     1       4.736  -1.399   1.400  1.00  0.00     0.033 C 
ATOM      5  C   UNL     1       5.742  -0.484   0.712  1.00  0.00     0.120 C 
ATOM      6  C   UNL     1       5.171   0.134  -0.607  1.00  0.00    -0.006 C 
ATOM      7  C   UNL     1       3.589   0.107  -0.616  1.00  0.00     0.003 C 
ATOM      8  C   UNL     1       2.948   0.957  -1.730  1.00  0.00     0.005 C 
ATOM      9  C   UNL     1       1.480   0.579  -1.920  1.00  0.00     0.008 C 
ATOM     10  C   UNL     1       0.602   0.762  -0.653  1.00  0.00    -0.020 C 
ATOM     11  C   UNL     1       1.325   0.109   0.589  1.00  0.00     0.006 C 
ATOM     12  C   UNL     1       0.498   0.344   1.870  1.00  0.00     0.032 C 
ATOM     13  C   UNL     1      -0.977   0.150   1.684  1.00  0.00    -0.027 C 
ATOM     14  C   UNL     1      -1.619   0.011   0.505  1.00  0.00    -0.063 C 
ATOM     15  C   UNL     1      -0.860   0.046  -0.834  1.00  0.00    -0.006 C 
ATOM     16  C   UNL     1      -1.708   0.804  -1.897  1.00  0.00     0.013 C 
ATOM     17  C   UNL     1      -3.167   0.353  -1.974  1.00  0.00     0.020 C 
ATOM     18  C   UNL     1      -3.913   0.548  -0.635  1.00  0.00     0.074 C 
ATOM     19  C   UNL     1      -3.146  -0.146   0.533  1.00  0.00     0.033 C 
ATOM     20  C   UNL     1      -3.588  -1.617   0.681  1.00  0.00     0.015 C 
ATOM     21  C   UNL     1      -5.082  -1.734   1.093  1.00  0.00    -0.035 C 
ATOM     22  C   UNL     1      -5.914  -0.554   0.531  1.00  0.00     0.007 C 
ATOM     23  C   UNL     1      -5.351  -0.031  -0.791  1.00  0.00     0.020 C 
ATOM     24  C   UNL     1      -5.637  -3.070   0.564  1.00  0.00     0.011 C 
ATOM     25  C   UNL     1      -5.207  -1.743   2.629  1.00  0.00     0.011 C 
ATOM     26  C   UNL     1      -0.713  -1.427  -1.321  1.00  0.00     0.017 C 
ATOM     27  C   UNL     1       0.405   2.293  -0.441  1.00  0.00     0.012 C 
ATOM     28  C   UNL     1       5.658  -0.776  -1.773  1.00  0.00     0.014 C 
ATOM     29  C   UNL     1       5.759   1.534  -0.882  1.00  0.00     0.014 C 
ENDROOT
BRANCH   5  30
ATOM     30  O   UNL     1       6.158   0.495   1.659  1.00  0.00    -0.393 OA
ATOM     31  H   UNL     1       6.971   0.909   1.323  1.00  0.00     0.210 HD
ENDBRANCH   5  30
BRANCH  18  32
ATOM     32  C   UNL     1      -4.082   2.038  -0.304  1.00  0.00     0.310 C 
ATOM     33  O   UNL     1      -4.124   2.546   0.806  1.00  0.00    -0.252 OA
BRANCH  32  34
ATOM     34  O   UNL     1      -4.280   2.820  -1.384  1.00  0.00    -0.481 OA
ATOM     35  H   UNL     1      -4.398   3.715  -1.001  1.00  0.00     0.296 HD
ENDBRANCH  32  34
ENDBRANCH  18  32
TORSDOF 3
