REMARK SMILES CC1(C)CC[C@]2(C(=O)O)CC[C@]3(C)C(=CC[C@@H]4[C@@]5(C)CC[C@H](O)C(C)(C)[C@@H]5CC[C@]43C)[C@@H]2C1
REMARK SMILES IDX 19 1 18 2 20 3 21 4 22 5 24 6 27 7 28 8 29 9 30 10 17 11
REMARK SMILES IDX 16 12 15 13 14 14 12 15 11 16 10 17 6 18 32 19 33 20 2 21
REMARK SMILES IDX 4 22 5 23 1 24 3 25 13 26 31 27 25 28 26 29 23 30 7 32 8 33
REMARK SMILES IDX 9 34
REMARK H PARENT 23 31 9 35
ROOT
ATOM      1  C   UNL     1      -2.021  -0.278  -3.228  1.00  0.00     0.012 C 
ATOM      2  C   UNL     1      -2.252  -0.647  -1.741  1.00  0.00    -0.025 C 
ATOM      3  C   UNL     1      -2.722  -2.133  -1.693  1.00  0.00     0.010 C 
ATOM      4  C   UNL     1      -4.135  -2.363  -2.226  1.00  0.00     0.033 C 
ATOM      5  C   UNL     1      -5.165  -1.476  -1.534  1.00  0.00     0.120 C 
ATOM      6  C   UNL     1      -4.827   0.045  -1.579  1.00  0.00    -0.006 C 
ATOM      7  C   UNL     1      -3.357   0.237  -1.050  1.00  0.00     0.003 C 
ATOM      8  C   UNL     1      -2.891   1.703  -0.929  1.00  0.00     0.005 C 
ATOM      9  C   UNL     1      -1.629   1.812  -0.067  1.00  0.00     0.008 C 
ATOM     10  C   UNL     1      -0.425   0.955  -0.553  1.00  0.00    -0.020 C 
ATOM     11  C   UNL     1      -0.929  -0.507  -0.865  1.00  0.00     0.006 C 
ATOM     12  C   UNL     1       0.229  -1.426  -1.300  1.00  0.00     0.032 C 
ATOM     13  C   UNL     1       1.560  -1.122  -0.678  1.00  0.00    -0.027 C 
ATOM     14  C   UNL     1       1.847  -0.110   0.171  1.00  0.00    -0.063 C 
ATOM     15  C   UNL     1       0.740   0.870   0.590  1.00  0.00    -0.006 C 
ATOM     16  C   UNL     1       1.370   2.266   0.836  1.00  0.00     0.013 C 
ATOM     17  C   UNL     1       2.479   2.246   1.882  1.00  0.00     0.020 C 
ATOM     18  C   UNL     1       3.692   1.387   1.456  1.00  0.00     0.074 C 
ATOM     19  C   UNL     1       3.321   0.153   0.550  1.00  0.00     0.033 C 
ATOM     20  C   UNL     1       4.132  -1.103   0.985  1.00  0.00     0.015 C 
ATOM     21  C   UNL     1       4.009  -1.513   2.471  1.00  0.00    -0.035 C 
ATOM     22  C   UNL     1       3.886  -0.280   3.391  1.00  0.00     0.007 C 
ATOM     23  C   UNL     1       4.462   0.980   2.747  1.00  0.00     0.020 C 
ATOM     24  C   UNL     1       5.278  -2.307   2.854  1.00  0.00     0.011 C 
ATOM     25  C   UNL     1       2.806  -2.448   2.684  1.00  0.00     0.011 C 
ATOM     26  C   UNL     1       0.163   0.359   1.943  1.00  0.00     0.017 C 
ATOM     27  C   UNL     1       0.147   1.644  -1.826  1.00  0.00     0.012 C 
ATOM     28  C   UNL     1      -5.825   0.762  -0.628  1.00  0.00     0.014 C 
ATOM     29  C   UNL     1      -5.070   0.644  -2.978  1.00  0.00     0.014 C 
ENDROOT
BRANCH   5  30
ATOM     30  O   UNL     1      -6.453  -1.746  -2.087  1.00  0.00    -0.393 OA
ATOM     31  H   UNL     1      -6.399  -1.631  -3.051  1.00  0.00     0.210 HD
ENDBRANCH   5  30
BRANCH  18  32
ATOM     32  C   UNL     1       4.634   2.291   0.638  1.00  0.00     0.310 C 
ATOM     33  O   UNL     1       4.419   3.430   0.255  1.00  0.00    -0.252 OA
BRANCH  32  34
ATOM     34  O   UNL     1       5.806   1.706   0.316  1.00  0.00    -0.481 OA
ATOM     35  H   UNL     1       6.275   2.393  -0.202  1.00  0.00     0.296 HD
ENDBRANCH  32  34
ENDBRANCH  18  32
TORSDOF 3
