REMARK SMILES CC1(C)CC[C@]2(C(=O)O)CC[C@]3(C)C(=CC[C@@H]4[C@@]5(C)CC[C@H](O)C(C)(C)[C@@H]5CC[C@]43C)[C@@H]2C1
REMARK SMILES IDX 19 1 18 2 20 3 21 4 22 5 24 6 27 7 28 8 29 9 30 10 17 11
REMARK SMILES IDX 16 12 15 13 14 14 12 15 11 16 10 17 6 18 32 19 33 20 2 21
REMARK SMILES IDX 4 22 5 23 1 24 3 25 13 26 31 27 25 28 26 29 23 30 7 32 8 33
REMARK SMILES IDX 9 34
REMARK H PARENT 23 31 9 35
ROOT
ATOM      1  C   UNL     1      -3.251  -0.767   1.908  1.00  0.00     0.012 C 
ATOM      2  C   UNL     1      -2.856   0.294   0.852  1.00  0.00    -0.025 C 
ATOM      3  C   UNL     1      -3.274   1.694   1.428  1.00  0.00     0.010 C 
ATOM      4  C   UNL     1      -4.531   2.312   0.805  1.00  0.00     0.033 C 
ATOM      5  C   UNL     1      -5.635   1.297   0.531  1.00  0.00     0.120 C 
ATOM      6  C   UNL     1      -5.175   0.180  -0.463  1.00  0.00    -0.006 C 
ATOM      7  C   UNL     1      -3.599   0.064  -0.508  1.00  0.00     0.003 C 
ATOM      8  C   UNL     1      -3.079  -1.198  -1.224  1.00  0.00     0.005 C 
ATOM      9  C   UNL     1      -1.599  -1.049  -1.575  1.00  0.00     0.008 C 
ATOM     10  C   UNL     1      -0.673  -0.800  -0.354  1.00  0.00    -0.020 C 
ATOM     11  C   UNL     1      -1.286   0.324   0.566  1.00  0.00     0.006 C 
ATOM     12  C   UNL     1      -0.413   0.517   1.827  1.00  0.00     0.032 C 
ATOM     13  C   UNL     1       1.065   0.440   1.577  1.00  0.00    -0.027 C 
ATOM     14  C   UNL     1       1.656   0.067   0.423  1.00  0.00    -0.063 C 
ATOM     15  C   UNL     1       0.821  -0.316  -0.819  1.00  0.00    -0.006 C 
ATOM     16  C   UNL     1       1.517  -1.429  -1.657  1.00  0.00     0.013 C 
ATOM     17  C   UNL     1       3.037  -1.282  -1.791  1.00  0.00     0.020 C 
ATOM     18  C   UNL     1       3.735  -1.214  -0.416  1.00  0.00     0.074 C 
ATOM     19  C   UNL     1       3.191   0.003   0.382  1.00  0.00     0.033 C 
ATOM     20  C   UNL     1       3.782   1.357  -0.075  1.00  0.00     0.015 C 
ATOM     21  C   UNL     1       5.322   1.382  -0.160  1.00  0.00    -0.035 C 
ATOM     22  C   UNL     1       5.796   0.218  -1.048  1.00  0.00     0.007 C 
ATOM     23  C   UNL     1       5.273  -1.139  -0.586  1.00  0.00     0.020 C 
ATOM     24  C   UNL     1       5.954   1.306   1.243  1.00  0.00     0.011 C 
ATOM     25  C   UNL     1       5.766   2.711  -0.803  1.00  0.00     0.011 C 
ATOM     26  C   UNL     1       0.761   0.954  -1.723  1.00  0.00     0.017 C 
ATOM     27  C   UNL     1      -0.563  -2.153   0.418  1.00  0.00     0.012 C 
ATOM     28  C   UNL     1      -5.880  -1.163  -0.179  1.00  0.00     0.014 C 
ATOM     29  C   UNL     1      -5.649   0.624  -1.879  1.00  0.00     0.014 C 
ENDROOT
BRANCH   5  30
ATOM     30  O   UNL     1      -6.076   0.787   1.786  1.00  0.00    -0.393 OA
ATOM     31  H   UNL     1      -6.932   0.348   1.645  1.00  0.00     0.210 HD
ENDBRANCH   5  30
BRANCH  18  32
ATOM     32  C   UNL     1       3.496  -2.498   0.390  1.00  0.00     0.310 C 
ATOM     33  O   UNL     1       3.327  -2.594   1.595  1.00  0.00    -0.252 OA
BRANCH  32  34
ATOM     34  O   UNL     1       3.572  -3.623  -0.352  1.00  0.00    -0.481 OA
ATOM     35  H   UNL     1       3.434  -4.339   0.304  1.00  0.00     0.296 HD
ENDBRANCH  32  34
ENDBRANCH  18  32
TORSDOF 3
