REMARK SMILES COc1ccc(-c2coc3cc(O[C@@H]4O[C@H](CO)[C@@H](O)[C@H](O)[C@H]4O)ccc3c2=O)cc1
REMARK SMILES IDX 13 1 12 2 7 3 8 4 28 5 9 6 27 7 29 8 10 9 26 10 11 11 25 12
REMARK SMILES IDX 6 13 3 14 4 15 31 16 5 17 30 18 2 19 1 20 14 21 23 22 15 23
REMARK SMILES IDX 21 24 16 25 19 26 24 27 22 29 17 31 18 32 20 34
REMARK H PARENT 24 28 22 30 18 33 20 35
ROOT
ATOM      1  O   UNL     1      -2.842  -0.307   1.227  1.00  0.00    -0.462 OA
ENDROOT
BRANCH   1   2
ATOM      2  C   UNL     1      -1.575  -0.388   0.721  1.00  0.00     0.126 A 
ATOM      3  C   UNL     1       3.529  -0.190   0.642  1.00  0.00     0.065 C 
ATOM      4  C   UNL     1       3.035   0.124   1.851  1.00  0.00     0.208 C 
ATOM      5  C   UNL     1       2.539  -0.504  -0.429  1.00  0.00     0.200 C 
ATOM      6  O   UNL     1       1.711   0.168   2.217  1.00  0.00    -0.463 OA
ATOM      7  C   UNL     1       1.117  -0.467  -0.044  1.00  0.00     0.066 A 
ATOM      8  O   UNL     1       2.865  -0.783  -1.577  1.00  0.00    -0.288 OA
ATOM      9  C   UNL     1       0.777  -0.133   1.261  1.00  0.00     0.141 A 
ATOM     10  C   UNL     1       0.116  -0.761  -0.975  1.00  0.00     0.020 A 
ATOM     11  C   UNL     1      -0.565  -0.092   1.643  1.00  0.00     0.094 A 
ATOM     12  C   UNL     1      -1.229  -0.719  -0.590  1.00  0.00     0.047 A 
BRANCH   3  13
ATOM     13  C   UNL     1       4.984  -0.182   0.399  1.00  0.00    -0.011 A 
ATOM     14  C   UNL     1       7.769  -0.152  -0.075  1.00  0.00     0.118 A 
ATOM     15  C   UNL     1       7.244  -0.822   1.030  1.00  0.00     0.047 A 
ATOM     16  C   UNL     1       6.901   0.501  -0.947  1.00  0.00     0.047 A 
ATOM     17  C   UNL     1       5.866  -0.842   1.266  1.00  0.00     0.013 A 
ATOM     18  C   UNL     1       5.519   0.484  -0.711  1.00  0.00     0.013 A 
BRANCH  14  19
ATOM     19  O   UNL     1       9.131  -0.211  -0.188  1.00  0.00    -0.497 OA
ATOM     20  C   UNL     1       9.708   0.419  -1.324  1.00  0.00     0.278 C 
ENDBRANCH  14  19
ENDBRANCH   3  13
ENDBRANCH   1   2
BRANCH   1  21
ATOM     21  C   UNL     1      -3.938  -0.708   0.391  1.00  0.00     0.339 C 
ATOM     22  C   UNL     1      -5.167  -0.905   1.322  1.00  0.00     0.214 C 
ATOM     23  O   UNL     1      -4.156   0.314  -0.601  1.00  0.00    -0.332 OA
ATOM     24  C   UNL     1      -5.986   0.396   1.392  1.00  0.00     0.180 C 
ATOM     25  C   UNL     1      -5.500   0.327  -1.100  1.00  0.00     0.179 C 
ATOM     26  C   UNL     1      -6.474   0.815  -0.009  1.00  0.00     0.177 C 
BRANCH  22  27
ATOM     27  O   UNL     1      -5.974  -1.985   0.825  1.00  0.00    -0.384 OA
ATOM     28  H   UNL     1      -6.867  -1.898   1.209  1.00  0.00     0.211 HD
ENDBRANCH  22  27
BRANCH  24  29
ATOM     29  O   UNL     1      -5.230   1.452   1.997  1.00  0.00    -0.387 OA
ATOM     30  H   UNL     1      -4.388   1.549   1.511  1.00  0.00     0.211 HD
ENDBRANCH  24  29
BRANCH  25  31
ATOM     31  C   UNL     1      -5.530   1.267  -2.311  1.00  0.00     0.191 C 
BRANCH  31  32
ATOM     32  O   UNL     1      -4.642   0.785  -3.319  1.00  0.00    -0.394 OA
ATOM     33  H   UNL     1      -3.780   0.665  -2.878  1.00  0.00     0.210 HD
ENDBRANCH  31  32
ENDBRANCH  25  31
BRANCH  26  34
ATOM     34  O   UNL     1      -7.777   0.263  -0.238  1.00  0.00    -0.387 OA
ATOM     35  H   UNL     1      -8.148   0.679  -1.036  1.00  0.00     0.211 HD
ENDBRANCH  26  34
ENDBRANCH   1  21
TORSDOF 9
