REMARK SMILES COc1ccc(-c2coc3cc(O[C@@H]4O[C@H](CO)[C@@H](O)[C@H](O)[C@H]4O)ccc3c2=O)cc1
REMARK SMILES IDX 13 1 12 2 7 3 8 4 28 5 9 6 27 7 29 8 10 9 26 10 11 11 25 12
REMARK SMILES IDX 6 13 3 14 4 15 31 16 5 17 30 18 2 19 1 20 14 21 23 22 15 23
REMARK SMILES IDX 21 24 16 25 19 26 24 27 22 29 17 31 18 32 20 34
REMARK H PARENT 24 28 22 30 18 33 20 35
ROOT
ATOM      1  O   UNL     1      -3.165   1.068   0.652  1.00  0.00    -0.462 OA
ENDROOT
BRANCH   1   2
ATOM      2  C   UNL     1      -1.811   1.023   0.458  1.00  0.00     0.126 A 
ATOM      3  C   UNL     1       3.125  -0.054  -0.253  1.00  0.00     0.065 C 
ATOM      4  C   UNL     1       2.397  -1.161  -0.034  1.00  0.00     0.208 C 
ATOM      5  C   UNL     1       2.391   1.244  -0.268  1.00  0.00     0.200 C 
ATOM      6  O   UNL     1       1.045  -1.229   0.196  1.00  0.00    -0.463 OA
ATOM      7  C   UNL     1       0.939   1.183  -0.021  1.00  0.00     0.066 A 
ATOM      8  O   UNL     1       2.942   2.319  -0.472  1.00  0.00    -0.288 OA
ATOM      9  C   UNL     1       0.339  -0.053   0.202  1.00  0.00     0.141 A 
ATOM     10  C   UNL     1       0.166   2.346  -0.018  1.00  0.00     0.020 A 
ATOM     11  C   UNL     1      -1.036  -0.138   0.438  1.00  0.00     0.094 A 
ATOM     12  C   UNL     1      -1.208   2.261   0.215  1.00  0.00     0.047 A 
BRANCH   3  13
ATOM     13  C   UNL     1       4.576  -0.146  -0.499  1.00  0.00    -0.011 A 
ATOM     14  C   UNL     1       7.353  -0.332  -0.984  1.00  0.00     0.118 A 
ATOM     15  C   UNL     1       6.790  -0.962   0.125  1.00  0.00     0.047 A 
ATOM     16  C   UNL     1       6.527   0.394  -1.843  1.00  0.00     0.047 A 
ATOM     17  C   UNL     1       5.413  -0.868   0.366  1.00  0.00     0.013 A 
ATOM     18  C   UNL     1       5.153   0.490  -1.604  1.00  0.00     0.013 A 
BRANCH  14  19
ATOM     19  O   UNL     1       8.674  -0.346  -1.334  1.00  0.00    -0.497 OA
ATOM     20  C   UNL     1       9.562  -1.041  -0.468  1.00  0.00     0.278 C 
ENDBRANCH  14  19
ENDBRANCH   3  13
ENDBRANCH   1   2
BRANCH   1  21
ATOM     21  C   UNL     1      -3.754  -0.017   1.378  1.00  0.00     0.339 C 
ATOM     22  C   UNL     1      -5.080   0.467   2.015  1.00  0.00     0.214 C 
ATOM     23  O   UNL     1      -3.999  -1.168   0.568  1.00  0.00    -0.332 OA
ATOM     24  C   UNL     1      -6.283   0.223   1.092  1.00  0.00     0.180 C 
ATOM     25  C   UNL     1      -4.858  -0.949  -0.572  1.00  0.00     0.179 C 
ATOM     26  C   UNL     1      -5.856   0.205  -0.372  1.00  0.00     0.177 C 
BRANCH  22  27
ATOM     27  O   UNL     1      -5.351  -0.212   3.258  1.00  0.00    -0.384 OA
ATOM     28  H   UNL     1      -5.243  -1.169   3.098  1.00  0.00     0.211 HD
ENDBRANCH  22  27
BRANCH  24  29
ATOM     29  O   UNL     1      -7.282   1.238   1.283  1.00  0.00    -0.387 OA
ATOM     30  H   UNL     1      -7.483   1.242   2.240  1.00  0.00     0.211 HD
ENDBRANCH  24  29
BRANCH  25  31
ATOM     31  C   UNL     1      -4.046  -0.761  -1.863  1.00  0.00     0.191 C 
BRANCH  31  32
ATOM     32  O   UNL     1      -3.225  -1.905  -2.102  1.00  0.00    -0.394 OA
ATOM     33  H   UNL     1      -2.724  -1.729  -2.916  1.00  0.00     0.210 HD
ENDBRANCH  31  32
ENDBRANCH  25  31
BRANCH  26  34
ATOM     34  O   UNL     1      -7.001   0.036  -1.211  1.00  0.00    -0.387 OA
ATOM     35  H   UNL     1      -7.681   0.635  -0.839  1.00  0.00     0.211 HD
ENDBRANCH  26  34
ENDBRANCH   1  21
TORSDOF 9
