REMARK SMILES COc1ccc(-c2coc3cc(O[C@@H]4O[C@H](CO)[C@@H](O)[C@H](O)[C@H]4O)ccc3c2=O)cc1
REMARK SMILES IDX 13 1 12 2 7 3 8 4 28 5 9 6 27 7 29 8 10 9 26 10 11 11 25 12
REMARK SMILES IDX 6 13 3 14 4 15 31 16 5 17 30 18 2 19 1 20 14 21 23 22 15 23
REMARK SMILES IDX 21 24 16 25 19 26 24 27 22 29 17 31 18 32 20 34
REMARK H PARENT 24 28 22 30 18 33 20 35
ROOT
ATOM      1  O   UNL     1      -2.922  -1.389  -0.214  1.00  0.00    -0.462 OA
ENDROOT
BRANCH   1   2
ATOM      2  C   UNL     1      -1.565  -1.240  -0.165  1.00  0.00     0.126 A 
ATOM      3  C   UNL     1       3.348   0.097   0.215  1.00  0.00     0.065 C 
ATOM      4  C   UNL     1       2.526   1.122   0.491  1.00  0.00     0.208 C 
ATOM      5  C   UNL     1       2.710  -1.194  -0.172  1.00  0.00     0.200 C 
ATOM      6  O   UNL     1       1.152   1.107   0.475  1.00  0.00    -0.463 OA
ATOM      7  C   UNL     1       1.236  -1.227  -0.174  1.00  0.00     0.066 A 
ATOM      8  O   UNL     1       3.354  -2.190  -0.480  1.00  0.00    -0.288 OA
ATOM      9  C   UNL     1       0.531  -0.073   0.152  1.00  0.00     0.141 A 
ATOM     10  C   UNL     1       0.548  -2.396  -0.500  1.00  0.00     0.020 A 
ATOM     11  C   UNL     1      -0.869  -0.073   0.156  1.00  0.00     0.094 A 
ATOM     12  C   UNL     1      -0.849  -2.396  -0.495  1.00  0.00     0.047 A 
BRANCH   3  13
ATOM     13  C   UNL     1       4.812   0.274   0.265  1.00  0.00    -0.011 A 
ATOM     14  C   UNL     1       7.616   0.616   0.340  1.00  0.00     0.118 A 
ATOM     15  C   UNL     1       6.820   1.041   1.404  1.00  0.00     0.047 A 
ATOM     16  C   UNL     1       7.011   0.016  -0.762  1.00  0.00     0.047 A 
ATOM     17  C   UNL     1       5.432   0.870   1.372  1.00  0.00     0.013 A 
ATOM     18  C   UNL     1       5.620  -0.154  -0.797  1.00  0.00     0.013 A 
BRANCH  14  19
ATOM     19  O   UNL     1       8.955   0.843   0.501  1.00  0.00    -0.497 OA
ATOM     20  C   UNL     1       9.813   0.377  -0.533  1.00  0.00     0.278 C 
ENDBRANCH  14  19
ENDBRANCH   3  13
ENDBRANCH   1   2
BRANCH   1  21
ATOM     21  C   UNL     1      -3.757  -0.317   0.245  1.00  0.00     0.339 C 
ATOM     22  C   UNL     1      -3.987   0.696  -0.913  1.00  0.00     0.214 C 
ATOM     23  O   UNL     1      -4.984  -0.903   0.708  1.00  0.00    -0.332 OA
ATOM     24  C   UNL     1      -5.410   0.593  -1.482  1.00  0.00     0.180 C 
ATOM     25  C   UNL     1      -6.001   0.079   0.949  1.00  0.00     0.179 C 
ATOM     26  C   UNL     1      -6.441   0.779  -0.353  1.00  0.00     0.177 C 
BRANCH  22  27
ATOM     27  O   UNL     1      -3.786   2.040  -0.426  1.00  0.00    -0.384 OA
ATOM     28  H   UNL     1      -3.661   2.612  -1.208  1.00  0.00     0.211 HD
ENDBRANCH  22  27
BRANCH  24  29
ATOM     29  O   UNL     1      -5.629  -0.647  -2.152  1.00  0.00    -0.387 OA
ATOM     30  H   UNL     1      -4.939  -0.766  -2.827  1.00  0.00     0.211 HD
ENDBRANCH  24  29
BRANCH  25  31
ATOM     31  C   UNL     1      -7.183  -0.643   1.605  1.00  0.00     0.191 C 
BRANCH  31  32
ATOM     32  O   UNL     1      -6.750  -1.265   2.816  1.00  0.00    -0.394 OA
ATOM     33  H   UNL     1      -5.965  -1.791   2.567  1.00  0.00     0.210 HD
ENDBRANCH  31  32
ENDBRANCH  25  31
BRANCH  26  34
ATOM     34  O   UNL     1      -6.621   2.180  -0.088  1.00  0.00    -0.387 OA
ATOM     35  H   UNL     1      -5.747   2.542   0.164  1.00  0.00     0.211 HD
ENDBRANCH  26  34
ENDBRANCH   1  21
TORSDOF 9
