REMARK SMILES Oc1cc(O)cc(/C=C/c2ccc(O)cc2O)c1
REMARK SMILES IDX 9 1 8 2 10 3 12 4 11 5 13 6 15 7 16 8 14 9 17 11 7 13 6 14
REMARK SMILES IDX 18 15 4 16 2 17 3 18 5 19 1 21
REMARK H PARENT 14 10 17 12 5 20 1 22
ROOT
ATOM      1  C   UNL     1      -0.466   0.057   0.400  1.00  0.00     0.012 C 
ATOM      2  C   UNL     1       0.438   0.086  -0.593  1.00  0.00     0.009 C 
ENDROOT
BRANCH   1   3
ATOM      3  C   UNL     1      -1.926   0.023   0.198  1.00  0.00     0.017 A 
ATOM      4  C   UNL     1      -3.925   0.732  -1.003  1.00  0.00     0.047 A 
ATOM      5  C   UNL     1      -2.537   0.748  -0.838  1.00  0.00     0.016 A 
ATOM      6  C   UNL     1      -4.710  -0.002  -0.122  1.00  0.00     0.119 A 
ATOM      7  C   UNL     1      -4.135  -0.715   0.922  1.00  0.00     0.092 A 
ATOM      8  C   UNL     1      -2.749  -0.695   1.082  1.00  0.00     0.126 A 
BRANCH   6   9
ATOM      9  O   UNL     1      -6.068  -0.044  -0.247  1.00  0.00    -0.508 OA
ATOM     10  H   UNL     1      -6.327   0.495  -1.012  1.00  0.00     0.293 HD
ENDBRANCH   6   9
BRANCH   8  11
ATOM     11  O   UNL     1      -2.180  -1.394   2.116  1.00  0.00    -0.507 OA
ATOM     12  H   UNL     1      -2.886  -1.844   2.609  1.00  0.00     0.293 HD
ENDBRANCH   8  11
ENDBRANCH   1   3
BRANCH   2  13
ATOM     13  C   UNL     1       1.892   0.105  -0.373  1.00  0.00    -0.018 A 
ATOM     14  C   UNL     1       2.697   0.860  -1.237  1.00  0.00     0.054 A 
ATOM     15  C   UNL     1       2.503  -0.651   0.638  1.00  0.00     0.054 A 
ATOM     16  C   UNL     1       4.080   0.875  -1.071  1.00  0.00     0.119 A 
ATOM     17  C   UNL     1       3.890  -0.622   0.786  1.00  0.00     0.119 A 
ATOM     18  C   UNL     1       4.687   0.140  -0.060  1.00  0.00     0.092 A 
BRANCH  16  19
ATOM     19  O   UNL     1       4.815   1.634  -1.935  1.00  0.00    -0.508 OA
ATOM     20  H   UNL     1       5.753   1.550  -1.695  1.00  0.00     0.293 HD
ENDBRANCH  16  19
BRANCH  17  21
ATOM     21  O   UNL     1       4.513  -1.344   1.762  1.00  0.00    -0.508 OA
ATOM     22  H   UNL     1       3.837  -1.822   2.271  1.00  0.00     0.293 HD
ENDBRANCH  17  21
ENDBRANCH   2  13
TORSDOF 6
