REMARK SMILES Oc1cc(O)cc(/C=C/c2ccc(O)cc2O)c1
REMARK SMILES IDX 9 1 8 2 10 3 12 4 11 5 13 6 15 7 16 8 14 9 17 11 7 13 6 14
REMARK SMILES IDX 18 15 4 16 2 17 3 18 5 19 1 21
REMARK H PARENT 14 10 17 12 5 20 1 22
ROOT
ATOM      1  C   UNL     1       0.555   0.535  -0.289  1.00  0.00     0.012 C 
ATOM      2  C   UNL     1      -0.388  -0.394  -0.065  1.00  0.00     0.009 C 
ENDROOT
BRANCH   1   3
ATOM      3  C   UNL     1       1.998   0.246  -0.257  1.00  0.00     0.017 A 
ATOM      4  C   UNL     1       4.152   0.481  -1.364  1.00  0.00     0.047 A 
ATOM      5  C   UNL     1       2.773   0.701  -1.334  1.00  0.00     0.016 A 
ATOM      6  C   UNL     1       4.765  -0.188  -0.312  1.00  0.00     0.119 A 
ATOM      7  C   UNL     1       4.025  -0.639   0.777  1.00  0.00     0.092 A 
ATOM      8  C   UNL     1       2.645  -0.415   0.801  1.00  0.00     0.126 A 
BRANCH   6   9
ATOM      9  O   UNL     1       6.113  -0.380  -0.386  1.00  0.00    -0.508 OA
ATOM     10  H   UNL     1       6.408  -0.864   0.402  1.00  0.00     0.293 HD
ENDBRANCH   6   9
BRANCH   8  11
ATOM     11  O   UNL     1       1.918  -0.835   1.884  1.00  0.00    -0.507 OA
ATOM     12  H   UNL     1       2.516  -1.207   2.550  1.00  0.00     0.293 HD
ENDBRANCH   8  11
ENDBRANCH   1   3
BRANCH   2  13
ATOM     13  C   UNL     1      -1.833  -0.128  -0.099  1.00  0.00    -0.018 A 
ATOM     14  C   UNL     1      -2.414   0.754  -1.020  1.00  0.00     0.054 A 
ATOM     15  C   UNL     1      -2.668  -0.823   0.786  1.00  0.00     0.054 A 
ATOM     16  C   UNL     1      -3.793   0.950  -1.030  1.00  0.00     0.119 A 
ATOM     17  C   UNL     1      -4.046  -0.615   0.762  1.00  0.00     0.119 A 
ATOM     18  C   UNL     1      -4.623   0.272  -0.141  1.00  0.00     0.092 A 
BRANCH  16  19
ATOM     19  O   UNL     1      -4.299   1.825  -1.947  1.00  0.00    -0.508 OA
ATOM     20  H   UNL     1      -5.264   1.866  -1.847  1.00  0.00     0.293 HD
ENDBRANCH  16  19
BRANCH  17  21
ATOM     21  O   UNL     1      -4.805  -1.315   1.654  1.00  0.00    -0.508 OA
ATOM     22  H   UNL     1      -5.737  -1.071   1.535  1.00  0.00     0.293 HD
ENDBRANCH  17  21
ENDBRANCH   2  13
TORSDOF 6
