REMARK SMILES Oc1cc(O)cc(/C=C/c2ccc(O)cc2O)c1
REMARK SMILES IDX 9 1 8 2 10 3 12 4 11 5 13 6 15 7 16 8 14 9 17 11 7 13 6 14
REMARK SMILES IDX 18 15 4 16 2 17 3 18 5 19 1 21
REMARK H PARENT 14 10 17 12 5 20 1 22
ROOT
ATOM      1  C   UNL     1       0.458  -0.151  -0.616  1.00  0.00     0.012 C 
ATOM      2  C   UNL     1      -0.388   0.099   0.396  1.00  0.00     0.009 C 
ENDROOT
BRANCH   1   3
ATOM      3  C   UNL     1       1.915  -0.126  -0.434  1.00  0.00     0.017 A 
ATOM      4  C   UNL     1       4.036   0.924  -1.005  1.00  0.00     0.047 A 
ATOM      5  C   UNL     1       2.646   0.843  -1.137  1.00  0.00     0.016 A 
ATOM      6  C   UNL     1       4.697   0.029  -0.171  1.00  0.00     0.119 A 
ATOM      7  C   UNL     1       3.995  -0.945   0.528  1.00  0.00     0.092 A 
ATOM      8  C   UNL     1       2.610  -1.024   0.391  1.00  0.00     0.126 A 
BRANCH   6   9
ATOM      9  O   UNL     1       6.051   0.074  -0.014  1.00  0.00    -0.508 OA
ATOM     10  H   UNL     1       6.406   0.798  -0.555  1.00  0.00     0.293 HD
ENDBRANCH   6   9
BRANCH   8  11
ATOM     11  O   UNL     1       1.990  -2.024   1.091  1.00  0.00    -0.507 OA
ATOM     12  H   UNL     1       1.048  -2.028   0.852  1.00  0.00     0.293 HD
ENDBRANCH   8  11
ENDBRANCH   1   3
BRANCH   2  13
ATOM     13  C   UNL     1      -1.852   0.118   0.260  1.00  0.00    -0.018 A 
ATOM     14  C   UNL     1      -2.588   1.021   1.043  1.00  0.00     0.054 A 
ATOM     15  C   UNL     1      -2.538  -0.769  -0.582  1.00  0.00     0.054 A 
ATOM     16  C   UNL     1      -3.979   1.046   0.957  1.00  0.00     0.119 A 
ATOM     17  C   UNL     1      -3.931  -0.728  -0.651  1.00  0.00     0.119 A 
ATOM     18  C   UNL     1      -4.657   0.178   0.111  1.00  0.00     0.092 A 
BRANCH  16  19
ATOM     19  O   UNL     1      -4.720   1.919   1.698  1.00  0.00    -0.508 OA
ATOM     20  H   UNL     1      -4.122   2.462   2.237  1.00  0.00     0.293 HD
ENDBRANCH  16  19
BRANCH  17  21
ATOM     21  O   UNL     1      -4.626  -1.575  -1.464  1.00  0.00    -0.508 OA
ATOM     22  H   UNL     1      -4.000  -2.153  -1.929  1.00  0.00     0.293 HD
ENDBRANCH  17  21
ENDBRANCH   2  13
TORSDOF 6
