REMARK SMILES OC[C@H]1O[C@@H](Oc2cc(O)cc(/C=C/c3ccc(O)cc3)c2)[C@H](O)[C@@H](O)[C@@H]1O
REMARK SMILES IDX 12 1 11 2 9 3 8 4 7 5 22 6 13 7 14 8 15 9 16 10 17 11 18 12
REMARK SMILES IDX 21 13 20 14 19 15 10 17 6 19 5 20 23 21 4 22 25 23 3 24
REMARK SMILES IDX 27 25 24 26 26 28 2 30 1 31 28 33
REMARK H PARENT 19 16 10 18 24 27 26 29 1 32 28 34
ROOT
ATOM      1  C   UNL     1       1.497  -0.885  -0.040  1.00  0.00    -0.018 A 
ATOM      2  C   UNL     1       1.615  -2.256  -0.294  1.00  0.00     0.054 A 
ATOM      3  C   UNL     1       0.541  -2.947  -0.848  1.00  0.00     0.119 A 
ATOM      4  C   UNL     1      -0.657  -2.305  -1.149  1.00  0.00     0.092 A 
ATOM      5  C   UNL     1      -0.795  -0.945  -0.883  1.00  0.00     0.127 A 
ATOM      6  C   UNL     1       0.282  -0.246  -0.326  1.00  0.00     0.055 A 
ENDROOT
BRANCH   1   7
ATOM      7  C   UNL     1       2.583  -0.105   0.570  1.00  0.00     0.009 C 
ATOM      8  C   UNL     1       3.879  -0.253   0.252  1.00  0.00     0.009 C 
BRANCH   8   9
ATOM      9  C   UNL     1       4.962   0.532   0.860  1.00  0.00    -0.025 A 
ATOM     10  C   UNL     1       4.832   1.901   1.133  1.00  0.00     0.012 A 
ATOM     11  C   UNL     1       5.895   2.618   1.686  1.00  0.00     0.047 A 
ATOM     12  C   UNL     1       7.095   1.973   1.958  1.00  0.00     0.115 A 
ATOM     13  C   UNL     1       6.187  -0.096   1.127  1.00  0.00     0.012 A 
ATOM     14  C   UNL     1       7.253   0.620   1.681  1.00  0.00     0.047 A 
BRANCH  12  15
ATOM     15  O   UNL     1       8.105   2.712   2.497  1.00  0.00    -0.508 OA
ATOM     16  H   UNL     1       8.875   2.135   2.630  1.00  0.00     0.293 HD
ENDBRANCH  12  15
ENDBRANCH   8   9
ENDBRANCH   1   7
BRANCH   3  17
ATOM     17  O   UNL     1       0.617  -4.284  -1.111  1.00  0.00    -0.508 OA
ATOM     18  H   UNL     1       1.504  -4.601  -0.870  1.00  0.00     0.293 HD
ENDBRANCH   3  17
BRANCH   5  19
ATOM     19  O   UNL     1      -1.907  -0.182  -1.101  1.00  0.00    -0.462 OA
BRANCH  19  20
ATOM     20  C   UNL     1      -3.080  -0.788  -1.650  1.00  0.00     0.339 C 
ATOM     21  C   UNL     1      -3.912  -1.503  -0.545  1.00  0.00     0.214 C 
ATOM     22  O   UNL     1      -3.862   0.216  -2.315  1.00  0.00    -0.332 OA
ATOM     23  C   UNL     1      -5.008  -0.585   0.016  1.00  0.00     0.180 C 
ATOM     24  C   UNL     1      -4.342   1.277  -1.475  1.00  0.00     0.179 C 
ATOM     25  C   UNL     1      -4.536   0.862  -0.006  1.00  0.00     0.177 C 
BRANCH  21  26
ATOM     26  O   UNL     1      -4.572  -2.688  -1.027  1.00  0.00    -0.384 OA
ATOM     27  H   UNL     1      -3.888  -3.310  -1.333  1.00  0.00     0.211 HD
ENDBRANCH  21  26
BRANCH  23  28
ATOM     28  O   UNL     1      -5.334  -0.959   1.365  1.00  0.00    -0.387 OA
ATOM     29  H   UNL     1      -5.629  -1.889   1.313  1.00  0.00     0.211 HD
ENDBRANCH  23  28
BRANCH  24  30
ATOM     30  C   UNL     1      -3.461   2.530  -1.587  1.00  0.00     0.191 C 
BRANCH  30  31
ATOM     31  O   UNL     1      -4.066   3.672  -0.983  1.00  0.00    -0.394 OA
ATOM     32  H   UNL     1      -4.625   3.361  -0.240  1.00  0.00     0.210 HD
ENDBRANCH  30  31
ENDBRANCH  24  30
BRANCH  25  33
ATOM     33  O   UNL     1      -5.484   1.723   0.635  1.00  0.00    -0.387 OA
ATOM     34  H   UNL     1      -5.789   1.219   1.419  1.00  0.00     0.211 HD
ENDBRANCH  25  33
ENDBRANCH  19  20
ENDBRANCH   5  19
TORSDOF 11
