REMARK SMILES OC[C@H]1O[C@@H](Oc2cc(O)cc(/C=C/c3ccc(O)cc3)c2)[C@H](O)[C@@H](O)[C@@H]1O
REMARK SMILES IDX 12 1 11 2 9 3 8 4 7 5 22 6 13 7 14 8 15 9 16 10 17 11 18 12
REMARK SMILES IDX 21 13 20 14 19 15 10 17 6 19 5 20 23 21 4 22 25 23 3 24
REMARK SMILES IDX 27 25 24 26 26 28 2 30 1 31 28 33
REMARK H PARENT 19 16 10 18 24 27 26 29 1 32 28 34
ROOT
ATOM      1  C   UNL     1       1.434  -0.070  -1.329  1.00  0.00    -0.018 A 
ATOM      2  C   UNL     1       0.749   0.138  -2.531  1.00  0.00     0.054 A 
ATOM      3  C   UNL     1      -0.631   0.329  -2.513  1.00  0.00     0.119 A 
ATOM      4  C   UNL     1      -1.346   0.322  -1.319  1.00  0.00     0.092 A 
ATOM      5  C   UNL     1      -0.675   0.124  -0.114  1.00  0.00     0.127 A 
ATOM      6  C   UNL     1       0.713  -0.059  -0.127  1.00  0.00     0.055 A 
ENDROOT
BRANCH   1   7
ATOM      7  C   UNL     1       2.893  -0.242  -1.280  1.00  0.00     0.009 C 
ATOM      8  C   UNL     1       3.584  -0.989  -2.156  1.00  0.00     0.009 C 
BRANCH   8   9
ATOM      9  C   UNL     1       5.043  -1.165  -2.107  1.00  0.00    -0.025 A 
ATOM     10  C   UNL     1       5.756  -1.243  -3.312  1.00  0.00     0.012 A 
ATOM     11  C   UNL     1       7.141  -1.437  -3.312  1.00  0.00     0.047 A 
ATOM     12  C   UNL     1       7.812  -1.565  -2.101  1.00  0.00     0.115 A 
ATOM     13  C   UNL     1       5.739  -1.314  -0.900  1.00  0.00     0.012 A 
ATOM     14  C   UNL     1       7.122  -1.508  -0.897  1.00  0.00     0.047 A 
BRANCH  12  15
ATOM     15  O   UNL     1       9.161  -1.756  -2.053  1.00  0.00    -0.508 OA
ATOM     16  H   UNL     1       9.504  -1.776  -2.961  1.00  0.00     0.293 HD
ENDBRANCH  12  15
ENDBRANCH   8   9
ENDBRANCH   1   7
BRANCH   3  17
ATOM     17  O   UNL     1      -1.330   0.537  -3.667  1.00  0.00    -0.508 OA
ATOM     18  H   UNL     1      -0.708   0.537  -4.414  1.00  0.00     0.293 HD
ENDBRANCH   3  17
BRANCH   5  19
ATOM     19  O   UNL     1      -1.240   0.097   1.131  1.00  0.00    -0.462 OA
BRANCH  19  20
ATOM     20  C   UNL     1      -2.679   0.131   1.218  1.00  0.00     0.339 C 
ATOM     21  C   UNL     1      -3.022  -0.249   2.669  1.00  0.00     0.214 C 
ATOM     22  O   UNL     1      -3.160   1.442   0.940  1.00  0.00    -0.332 OA
ATOM     23  C   UNL     1      -4.544  -0.282   2.883  1.00  0.00     0.180 C 
ATOM     24  C   UNL     1      -4.559   1.658   1.186  1.00  0.00     0.179 C 
ATOM     25  C   UNL     1      -5.322   0.456   1.781  1.00  0.00     0.177 C 
BRANCH  21  26
ATOM     26  O   UNL     1      -2.461  -1.531   3.011  1.00  0.00    -0.384 OA
ATOM     27  H   UNL     1      -1.515  -1.476   2.776  1.00  0.00     0.211 HD
ENDBRANCH  21  26
BRANCH  23  28
ATOM     28  O   UNL     1      -4.887   0.257   4.169  1.00  0.00    -0.387 OA
ATOM     29  H   UNL     1      -4.581   1.191   4.169  1.00  0.00     0.211 HD
ENDBRANCH  23  28
BRANCH  24  30
ATOM     30  C   UNL     1      -4.683   2.925   2.048  1.00  0.00     0.191 C 
BRANCH  30  31
ATOM     31  O   UNL     1      -4.235   2.697   3.387  1.00  0.00    -0.394 OA
ATOM     32  H   UNL     1      -4.077   3.580   3.774  1.00  0.00     0.210 HD
ENDBRANCH  30  31
ENDBRANCH  24  30
BRANCH  25  33
ATOM     33  O   UNL     1      -5.586  -0.464   0.705  1.00  0.00    -0.387 OA
ATOM     34  H   UNL     1      -6.157  -1.170   1.062  1.00  0.00     0.211 HD
ENDBRANCH  25  33
ENDBRANCH  19  20
ENDBRANCH   5  19
TORSDOF 11
