REMARK SMILES OC[C@H]1O[C@@H](Oc2cc(O)cc(/C=C/c3ccc(O)cc3)c2)[C@H](O)[C@@H](O)[C@@H]1O
REMARK SMILES IDX 12 1 11 2 9 3 8 4 7 5 22 6 13 7 14 8 15 9 16 10 17 11 18 12
REMARK SMILES IDX 21 13 20 14 19 15 10 17 6 19 5 20 23 21 4 22 25 23 3 24
REMARK SMILES IDX 27 25 24 26 26 28 2 30 1 31 28 33
REMARK H PARENT 19 16 10 18 24 27 26 29 1 32 28 34
ROOT
ATOM      1  C   UNL     1       1.841   0.173   0.743  1.00  0.00    -0.018 A 
ATOM      2  C   UNL     1       1.853   1.181   1.713  1.00  0.00     0.054 A 
ATOM      3  C   UNL     1       0.656   1.589   2.295  1.00  0.00     0.119 A 
ATOM      4  C   UNL     1      -0.559   1.011   1.937  1.00  0.00     0.092 A 
ATOM      5  C   UNL     1      -0.585   0.004   0.976  1.00  0.00     0.127 A 
ATOM      6  C   UNL     1       0.617  -0.418   0.395  1.00  0.00     0.055 A 
ENDROOT
BRANCH   1   7
ATOM      7  C   UNL     1       3.072  -0.328   0.117  1.00  0.00     0.009 C 
ATOM      8  C   UNL     1       4.087   0.462  -0.270  1.00  0.00     0.009 C 
BRANCH   8   9
ATOM      9  C   UNL     1       5.317  -0.040  -0.902  1.00  0.00    -0.025 A 
ATOM     10  C   UNL     1       6.538   0.573  -0.588  1.00  0.00     0.012 A 
ATOM     11  C   UNL     1       7.727   0.145  -1.186  1.00  0.00     0.047 A 
ATOM     12  C   UNL     1       7.691  -0.892  -2.111  1.00  0.00     0.115 A 
ATOM     13  C   UNL     1       5.303  -1.073  -1.848  1.00  0.00     0.012 A 
ATOM     14  C   UNL     1       6.490  -1.502  -2.448  1.00  0.00     0.047 A 
BRANCH  12  15
ATOM     15  O   UNL     1       8.825  -1.342  -2.720  1.00  0.00    -0.508 OA
ATOM     16  H   UNL     1       9.581  -0.832  -2.386  1.00  0.00     0.293 HD
ENDBRANCH  12  15
ENDBRANCH   8   9
ENDBRANCH   1   7
BRANCH   3  17
ATOM     17  O   UNL     1       0.626   2.571   3.243  1.00  0.00    -0.508 OA
ATOM     18  H   UNL     1       1.539   2.837   3.447  1.00  0.00     0.293 HD
ENDBRANCH   3  17
BRANCH   5  19
ATOM     19  O   UNL     1      -1.692  -0.651   0.513  1.00  0.00    -0.462 OA
BRANCH  19  20
ATOM     20  C   UNL     1      -2.992  -0.186   0.896  1.00  0.00     0.339 C 
ATOM     21  C   UNL     1      -3.386   1.051   0.038  1.00  0.00     0.214 C 
ATOM     22  O   UNL     1      -3.904  -1.283   0.723  1.00  0.00    -0.332 OA
ATOM     23  C   UNL     1      -4.416   0.678  -1.039  1.00  0.00     0.180 C 
ATOM     24  C   UNL     1      -5.278  -0.881   0.793  1.00  0.00     0.179 C 
ATOM     25  C   UNL     1      -5.659   0.057  -0.374  1.00  0.00     0.177 C 
BRANCH  21  26
ATOM     26  O   UNL     1      -3.975   2.072   0.874  1.00  0.00    -0.384 OA
ATOM     27  H   UNL     1      -3.240   2.544   1.309  1.00  0.00     0.211 HD
ENDBRANCH  21  26
BRANCH  23  28
ATOM     28  O   UNL     1      -3.861  -0.212  -2.007  1.00  0.00    -0.387 OA
ATOM     29  H   UNL     1      -3.151   0.258  -2.479  1.00  0.00     0.211 HD
ENDBRANCH  23  28
BRANCH  24  30
ATOM     30  C   UNL     1      -6.118  -2.165   0.773  1.00  0.00     0.191 C 
BRANCH  30  31
ATOM     31  O   UNL     1      -5.831  -2.944  -0.388  1.00  0.00    -0.394 OA
ATOM     32  H   UNL     1      -4.861  -2.901  -0.502  1.00  0.00     0.210 HD
ENDBRANCH  30  31
ENDBRANCH  24  30
BRANCH  25  33
ATOM     33  O   UNL     1      -6.504   1.101   0.148  1.00  0.00    -0.387 OA
ATOM     34  H   UNL     1      -5.916   1.736   0.608  1.00  0.00     0.211 HD
ENDBRANCH  25  33
ENDBRANCH  19  20
ENDBRANCH   5  19
TORSDOF 11
