REMARK SMILES Oc1cc(O)c2c(c1)O[C@H](c1ccc(O)c(O)c1)[C@H](O)[C@H]2c1c(O)cc(O)c2c1O[C@H](c1ccc(O)c(O)c1)[C@H](O)C2
REMARK SMILES IDX 42 1 40 2 31 3 30 4 29 5 28 6 26 7 25 8 23 9 22 10 41 11
REMARK SMILES IDX 32 13 39 14 33 15 37 16 34 17 35 18 38 19 36 21 27 23 21 25
REMARK SMILES IDX 19 26 6 27 10 28 4 29 7 30 9 31 3 32 8 33 2 34 20 35 11 37
REMARK SMILES IDX 18 38 12 39 16 40 13 41 14 42 17 43 15 45 5 47 1 49 24 51
REMARK H PARENT 41 12 38 20 36 22 27 24 20 36 17 44 15 46 5 48 1 50 24 52
ROOT
ATOM      1  C   UNL     1      -3.979  -1.594  -1.477  1.00  0.00     0.079 C 
ATOM      2  C   UNL     1      -3.991  -0.362  -0.562  1.00  0.00     0.164 C 
ATOM      3  C   UNL     1      -2.748   0.477  -0.896  1.00  0.00     0.232 C 
ATOM      4  O   UNL     1      -1.575  -0.269  -0.552  1.00  0.00    -0.482 OA
ATOM      5  C   UNL     1      -1.480  -1.524  -1.096  1.00  0.00     0.135 A 
ATOM      6  C   UNL     1      -2.604  -2.214  -1.584  1.00  0.00     0.039 A 
ATOM      7  C   UNL     1      -2.394  -3.470  -2.161  1.00  0.00     0.126 A 
ATOM      8  C   UNL     1      -1.120  -4.034  -2.220  1.00  0.00     0.093 A 
ATOM      9  C   UNL     1      -0.029  -3.350  -1.687  1.00  0.00     0.126 A 
ATOM     10  C   UNL     1      -0.187  -2.093  -1.095  1.00  0.00     0.047 A 
ENDROOT
BRANCH   2  11
ATOM     11  O   UNL     1      -4.004  -0.821   0.801  1.00  0.00    -0.389 OA
ATOM     12  H   UNL     1      -3.107  -1.168   0.987  1.00  0.00     0.211 HD
ENDBRANCH   2  11
BRANCH   3  13
ATOM     13  C   UNL     1      -2.558   1.817  -0.207  1.00  0.00    -0.001 A 
ATOM     14  C   UNL     1      -3.012   2.087   1.094  1.00  0.00     0.057 A 
ATOM     15  C   UNL     1      -1.769   2.791  -0.860  1.00  0.00     0.012 A 
ATOM     16  C   UNL     1      -2.648   3.275   1.723  1.00  0.00     0.157 A 
ATOM     17  C   UNL     1      -1.420   3.984  -0.226  1.00  0.00     0.050 A 
ATOM     18  C   UNL     1      -1.843   4.204   1.073  1.00  0.00     0.157 A 
BRANCH  16  19
ATOM     19  O   UNL     1      -3.036   3.560   3.004  1.00  0.00    -0.504 OA
ATOM     20  H   UNL     1      -3.579   2.819   3.325  1.00  0.00     0.293 HD
ENDBRANCH  16  19
BRANCH  18  21
ATOM     21  O   UNL     1      -1.427   5.326   1.731  1.00  0.00    -0.504 OA
ATOM     22  H   UNL     1      -1.906   5.295   2.585  1.00  0.00     0.293 HD
ENDBRANCH  18  21
ENDBRANCH   3  13
BRANCH   7  23
ATOM     23  O   UNL     1      -3.400  -4.222  -2.700  1.00  0.00    -0.507 OA
ATOM     24  H   UNL     1      -4.241  -3.744  -2.647  1.00  0.00     0.293 HD
ENDBRANCH   7  23
BRANCH  10  25
ATOM     25  C   UNL     1       0.980  -1.309  -0.484  1.00  0.00     0.097 C 
ATOM     26  C   UNL     1       1.871  -0.761  -1.617  1.00  0.00     0.172 C 
ATOM     27  C   UNL     1       1.816  -2.009   0.574  1.00  0.00     0.047 A 
ATOM     28  C   UNL     1       3.097  -0.036  -1.028  1.00  0.00     0.233 C 
ATOM     29  C   UNL     1       1.257  -2.838   1.563  1.00  0.00     0.126 A 
ATOM     30  C   UNL     1       3.195  -1.754   0.645  1.00  0.00     0.131 A 
ATOM     31  O   UNL     1       3.866  -0.852  -0.135  1.00  0.00    -0.482 OA
ATOM     32  C   UNL     1       2.054  -3.478   2.515  1.00  0.00     0.092 A 
ATOM     33  C   UNL     1       3.999  -2.397   1.593  1.00  0.00     0.093 A 
ATOM     34  C   UNL     1       3.423  -3.262   2.511  1.00  0.00     0.122 A 
BRANCH  26  35
ATOM     35  O   UNL     1       1.146   0.102  -2.515  1.00  0.00    -0.388 OA
ATOM     36  H   UNL     1       0.586   0.675  -1.960  1.00  0.00     0.211 HD
ENDBRANCH  26  35
BRANCH  28  37
ATOM     37  C   UNL     1       2.790   1.352  -0.455  1.00  0.00    -0.001 A 
ATOM     38  C   UNL     1       2.841   2.466  -1.316  1.00  0.00     0.057 A 
ATOM     39  C   UNL     1       2.389   1.559   0.875  1.00  0.00     0.012 A 
ATOM     40  C   UNL     1       2.478   3.735  -0.864  1.00  0.00     0.157 A 
ATOM     41  C   UNL     1       2.011   2.831   1.322  1.00  0.00     0.050 A 
ATOM     42  C   UNL     1       2.051   3.911   0.448  1.00  0.00     0.157 A 
BRANCH  40  43
ATOM     43  O   UNL     1       2.497   4.803  -1.715  1.00  0.00    -0.504 OA
ATOM     44  H   UNL     1       2.950   4.544  -2.533  1.00  0.00     0.293 HD
ENDBRANCH  40  43
BRANCH  42  45
ATOM     45  O   UNL     1       1.661   5.148   0.876  1.00  0.00    -0.504 OA
ATOM     46  H   UNL     1       0.829   5.041   1.376  1.00  0.00     0.293 HD
ENDBRANCH  42  45
ENDBRANCH  28  37
BRANCH  29  47
ATOM     47  O   UNL     1      -0.100  -2.998   1.629  1.00  0.00    -0.507 OA
ATOM     48  H   UNL     1      -0.300  -3.699   2.271  1.00  0.00     0.293 HD
ENDBRANCH  29  47
BRANCH  34  49
ATOM     49  O   UNL     1       4.172  -3.902   3.455  1.00  0.00    -0.508 OA
ATOM     50  H   UNL     1       5.104  -3.656   3.329  1.00  0.00     0.293 HD
ENDBRANCH  34  49
ENDBRANCH  10  25
BRANCH   9  51
ATOM     51  O   UNL     1       1.217  -3.909  -1.753  1.00  0.00    -0.507 OA
ATOM     52  H   UNL     1       1.141  -4.801  -2.131  1.00  0.00     0.293 HD
ENDBRANCH   9  51
TORSDOF 13
