REMARK SMILES Oc1cc(O)c2c(c1)O[C@H](c1ccc(O)c(O)c1)[C@H](O)[C@H]2c1c(O)cc(O)c2c1O[C@H](c1ccc(O)c(O)c1)[C@H](O)C2
REMARK SMILES IDX 42 1 40 2 31 3 30 4 29 5 28 6 26 7 25 8 23 9 22 10 41 11
REMARK SMILES IDX 32 13 39 14 33 15 37 16 34 17 35 18 38 19 36 21 27 23 21 25
REMARK SMILES IDX 19 26 6 27 10 28 4 29 7 30 9 31 3 32 8 33 2 34 20 35 11 37
REMARK SMILES IDX 18 38 12 39 16 40 13 41 14 42 17 43 15 45 5 47 1 49 24 51
REMARK H PARENT 41 12 38 20 36 22 27 24 20 36 17 44 15 46 5 48 1 50 24 52
ROOT
ATOM      1  C   UNL     1       3.098  -2.313  -1.702  1.00  0.00     0.079 C 
ATOM      2  C   UNL     1       2.949  -3.126  -0.423  1.00  0.00     0.164 C 
ATOM      3  C   UNL     1       2.693  -2.178   0.765  1.00  0.00     0.232 C 
ATOM      4  O   UNL     1       1.417  -1.533   0.540  1.00  0.00    -0.482 OA
ATOM      5  C   UNL     1       1.289  -0.871  -0.666  1.00  0.00     0.135 A 
ATOM      6  C   UNL     1       2.072  -1.215  -1.788  1.00  0.00     0.039 A 
ATOM      7  C   UNL     1       1.869  -0.506  -2.974  1.00  0.00     0.126 A 
ATOM      8  C   UNL     1       0.888   0.475  -3.067  1.00  0.00     0.093 A 
ATOM      9  C   UNL     1       0.108   0.786  -1.955  1.00  0.00     0.126 A 
ATOM     10  C   UNL     1       0.302   0.144  -0.724  1.00  0.00     0.047 A 
ENDROOT
BRANCH   2  11
ATOM     11  O   UNL     1       4.062  -4.001  -0.254  1.00  0.00    -0.389 OA
ATOM     12  H   UNL     1       3.898  -4.541   0.540  1.00  0.00     0.211 HD
ENDBRANCH   2  11
BRANCH   3  13
ATOM     13  C   UNL     1       3.758  -1.154   1.167  1.00  0.00    -0.001 A 
ATOM     14  C   UNL     1       3.362   0.015   1.846  1.00  0.00     0.057 A 
ATOM     15  C   UNL     1       5.132  -1.343   0.936  1.00  0.00     0.012 A 
ATOM     16  C   UNL     1       4.293   0.982   2.204  1.00  0.00     0.157 A 
ATOM     17  C   UNL     1       6.071  -0.379   1.325  1.00  0.00     0.050 A 
ATOM     18  C   UNL     1       5.642   0.780   1.950  1.00  0.00     0.157 A 
BRANCH  16  19
ATOM     19  O   UNL     1       3.906   2.155   2.792  1.00  0.00    -0.504 OA
ATOM     20  H   UNL     1       2.930   2.188   2.745  1.00  0.00     0.293 HD
ENDBRANCH  16  19
BRANCH  18  21
ATOM     21  O   UNL     1       6.556   1.725   2.314  1.00  0.00    -0.504 OA
ATOM     22  H   UNL     1       6.024   2.423   2.747  1.00  0.00     0.293 HD
ENDBRANCH  18  21
ENDBRANCH   3  13
BRANCH   7  23
ATOM     23  O   UNL     1       2.593  -0.731  -4.111  1.00  0.00    -0.507 OA
ATOM     24  H   UNL     1       3.375  -1.268  -3.902  1.00  0.00     0.293 HD
ENDBRANCH   7  23
BRANCH  10  25
ATOM     25  C   UNL     1      -0.516   0.469   0.535  1.00  0.00     0.097 C 
ATOM     26  C   UNL     1      -1.762  -0.442   0.611  1.00  0.00     0.172 C 
ATOM     27  C   UNL     1      -0.859   1.929   0.782  1.00  0.00     0.047 A 
ATOM     28  C   UNL     1      -2.976   0.288   0.007  1.00  0.00     0.233 C 
ATOM     29  C   UNL     1       0.139   2.895   0.989  1.00  0.00     0.126 A 
ATOM     30  C   UNL     1      -2.198   2.347   0.846  1.00  0.00     0.131 A 
ATOM     31  O   UNL     1      -3.273   1.512   0.693  1.00  0.00    -0.482 OA
ATOM     32  C   UNL     1      -0.177   4.231   1.234  1.00  0.00     0.092 A 
ATOM     33  C   UNL     1      -2.523   3.680   1.114  1.00  0.00     0.093 A 
ATOM     34  C   UNL     1      -1.510   4.611   1.297  1.00  0.00     0.122 A 
BRANCH  26  35
ATOM     35  O   UNL     1      -1.998  -0.807   1.988  1.00  0.00    -0.388 OA
ATOM     36  H   UNL     1      -1.234  -1.331   2.282  1.00  0.00     0.211 HD
ENDBRANCH  26  35
BRANCH  28  37
ATOM     37  C   UNL     1      -4.224  -0.586  -0.017  1.00  0.00    -0.001 A 
ATOM     38  C   UNL     1      -5.033  -0.731   1.122  1.00  0.00     0.057 A 
ATOM     39  C   UNL     1      -4.573  -1.282  -1.191  1.00  0.00     0.012 A 
ATOM     40  C   UNL     1      -6.158  -1.542   1.072  1.00  0.00     0.157 A 
ATOM     41  C   UNL     1      -5.709  -2.097  -1.233  1.00  0.00     0.050 A 
ATOM     42  C   UNL     1      -6.497  -2.220  -0.096  1.00  0.00     0.157 A 
BRANCH  40  43
ATOM     43  O   UNL     1      -6.940  -1.673   2.184  1.00  0.00    -0.504 OA
ATOM     44  H   UNL     1      -7.655  -2.280   1.908  1.00  0.00     0.293 HD
ENDBRANCH  40  43
BRANCH  42  45
ATOM     45  O   UNL     1      -7.620  -3.001  -0.076  1.00  0.00    -0.504 OA
ATOM     46  H   UNL     1      -7.729  -3.393  -0.959  1.00  0.00     0.293 HD
ENDBRANCH  42  45
ENDBRANCH  28  37
BRANCH  29  47
ATOM     47  O   UNL     1       1.456   2.524   0.978  1.00  0.00    -0.507 OA
ATOM     48  H   UNL     1       1.968   3.281   0.639  1.00  0.00     0.293 HD
ENDBRANCH  29  47
BRANCH  34  49
ATOM     49  O   UNL     1      -1.786   5.922   1.553  1.00  0.00    -0.508 OA
ATOM     50  H   UNL     1      -2.751   6.026   1.610  1.00  0.00     0.293 HD
ENDBRANCH  34  49
ENDBRANCH  10  25
BRANCH   9  51
ATOM     51  O   UNL     1      -0.871   1.728  -2.089  1.00  0.00    -0.507 OA
ATOM     52  H   UNL     1      -0.760   2.190  -2.937  1.00  0.00     0.293 HD
ENDBRANCH   9  51
TORSDOF 13
