REMARK SMILES Oc1cc(O)c2c(c1)O[C@H](c1ccc(O)c(O)c1)[C@H](O)[C@H]2c1c(O)cc(O)c2c1O[C@H](c1ccc(O)c(O)c1)[C@H](O)C2
REMARK SMILES IDX 42 1 40 2 31 3 30 4 29 5 28 6 26 7 25 8 23 9 22 10 41 11
REMARK SMILES IDX 32 13 39 14 33 15 37 16 34 17 35 18 38 19 36 21 27 23 21 25
REMARK SMILES IDX 19 26 6 27 10 28 4 29 7 30 9 31 3 32 8 33 2 34 20 35 11 37
REMARK SMILES IDX 18 38 12 39 16 40 13 41 14 42 17 43 15 45 5 47 1 49 24 51
REMARK H PARENT 41 12 38 20 36 22 27 24 20 36 17 44 15 46 5 48 1 50 24 52
ROOT
ATOM      1  C   UNL     1       3.174  -2.563   1.836  1.00  0.00     0.079 C 
ATOM      2  C   UNL     1       4.015  -1.525   1.096  1.00  0.00     0.164 C 
ATOM      3  C   UNL     1       3.165  -0.254   0.933  1.00  0.00     0.232 C 
ATOM      4  O   UNL     1       1.992  -0.499   0.150  1.00  0.00    -0.482 OA
ATOM      5  C   UNL     1       1.236  -1.585   0.525  1.00  0.00     0.135 A 
ATOM      6  C   UNL     1       1.745  -2.604   1.355  1.00  0.00     0.039 A 
ATOM      7  C   UNL     1       0.881  -3.637   1.731  1.00  0.00     0.126 A 
ATOM      8  C   UNL     1      -0.432  -3.678   1.275  1.00  0.00     0.093 A 
ATOM      9  C   UNL     1      -0.907  -2.679   0.426  1.00  0.00     0.126 A 
ATOM     10  C   UNL     1      -0.086  -1.621   0.014  1.00  0.00     0.047 A 
ENDROOT
BRANCH   2  11
ATOM     11  O   UNL     1       4.434  -2.065  -0.166  1.00  0.00    -0.389 OA
ATOM     12  H   UNL     1       5.012  -2.827   0.005  1.00  0.00     0.211 HD
ENDBRANCH   2  11
BRANCH   3  13
ATOM     13  C   UNL     1       3.950   0.890   0.312  1.00  0.00    -0.001 A 
ATOM     14  C   UNL     1       4.503   1.895   1.125  1.00  0.00     0.057 A 
ATOM     15  C   UNL     1       4.158   0.953  -1.076  1.00  0.00     0.012 A 
ATOM     16  C   UNL     1       5.242   2.932   0.553  1.00  0.00     0.157 A 
ATOM     17  C   UNL     1       4.899   1.992  -1.645  1.00  0.00     0.050 A 
ATOM     18  C   UNL     1       5.441   2.979  -0.826  1.00  0.00     0.157 A 
BRANCH  16  19
ATOM     19  O   UNL     1       5.779   3.911   1.341  1.00  0.00    -0.504 OA
ATOM     20  H   UNL     1       5.433   3.819   2.241  1.00  0.00     0.293 HD
ENDBRANCH  16  19
BRANCH  18  21
ATOM     21  O   UNL     1       6.169   4.002  -1.366  1.00  0.00    -0.504 OA
ATOM     22  H   UNL     1       6.160   3.913  -2.331  1.00  0.00     0.293 HD
ENDBRANCH  18  21
ENDBRANCH   3  13
BRANCH   7  23
ATOM     23  O   UNL     1       1.244  -4.657   2.565  1.00  0.00    -0.507 OA
ATOM     24  H   UNL     1       2.146  -4.520   2.891  1.00  0.00     0.293 HD
ENDBRANCH   7  23
BRANCH  10  25
ATOM     25  C   UNL     1      -0.552  -0.493  -0.920  1.00  0.00     0.097 C 
ATOM     26  C   UNL     1      -1.093   0.704  -0.103  1.00  0.00     0.172 C 
ATOM     27  C   UNL     1      -1.520  -0.880  -2.029  1.00  0.00     0.047 A 
ATOM     28  C   UNL     1      -2.609   0.538   0.118  1.00  0.00     0.233 C 
ATOM     29  C   UNL     1      -1.133  -1.745  -3.064  1.00  0.00     0.126 A 
ATOM     30  C   UNL     1      -2.814  -0.340  -2.069  1.00  0.00     0.131 A 
ATOM     31  O   UNL     1      -3.297   0.553  -1.148  1.00  0.00    -0.482 OA
ATOM     32  C   UNL     1      -2.008  -2.075  -4.099  1.00  0.00     0.092 A 
ATOM     33  C   UNL     1      -3.690  -0.649  -3.113  1.00  0.00     0.093 A 
ATOM     34  C   UNL     1      -3.280  -1.521  -4.115  1.00  0.00     0.122 A 
BRANCH  26  35
ATOM     35  O   UNL     1      -0.809   1.930  -0.816  1.00  0.00    -0.388 OA
ATOM     36  H   UNL     1      -1.420   1.959  -1.576  1.00  0.00     0.211 HD
ENDBRANCH  26  35
BRANCH  28  37
ATOM     37  C   UNL     1      -3.304   1.570   1.005  1.00  0.00    -0.001 A 
ATOM     38  C   UNL     1      -4.673   1.384   1.294  1.00  0.00     0.057 A 
ATOM     39  C   UNL     1      -2.651   2.684   1.563  1.00  0.00     0.012 A 
ATOM     40  C   UNL     1      -5.347   2.285   2.110  1.00  0.00     0.157 A 
ATOM     41  C   UNL     1      -3.336   3.585   2.385  1.00  0.00     0.050 A 
ATOM     42  C   UNL     1      -4.679   3.376   2.653  1.00  0.00     0.157 A 
BRANCH  40  43
ATOM     43  O   UNL     1      -6.674   2.137   2.409  1.00  0.00    -0.504 OA
ATOM     44  H   UNL     1      -7.000   1.353   1.935  1.00  0.00     0.293 HD
ENDBRANCH  40  43
BRANCH  42  45
ATOM     45  O   UNL     1      -5.346   4.256   3.456  1.00  0.00    -0.504 OA
ATOM     46  H   UNL     1      -6.259   3.909   3.488  1.00  0.00     0.293 HD
ENDBRANCH  42  45
ENDBRANCH  28  37
BRANCH  29  47
ATOM     47  O   UNL     1       0.134  -2.256  -3.061  1.00  0.00    -0.507 OA
ATOM     48  H   UNL     1       0.246  -2.835  -3.832  1.00  0.00     0.293 HD
ENDBRANCH  29  47
BRANCH  34  49
ATOM     49  O   UNL     1      -4.106  -1.855  -5.148  1.00  0.00    -0.508 OA
ATOM     50  H   UNL     1      -4.941  -1.368  -5.047  1.00  0.00     0.293 HD
ENDBRANCH  34  49
ENDBRANCH  10  25
BRANCH   9  51
ATOM     51  O   UNL     1      -2.212  -2.740   0.026  1.00  0.00    -0.507 OA
ATOM     52  H   UNL     1      -2.539  -3.644   0.164  1.00  0.00     0.293 HD
ENDBRANCH   9  51
TORSDOF 13
