REMARK SMILES O=c1c(-c2ccc(O)cc2)coc2c([C@@H]3O[C@H](CO)[C@@H](O)[C@H](O)[C@H]3O)c(O)ccc12
REMARK SMILES IDX 3 1 11 2 12 3 13 4 30 5 2 6 1 7 29 8 28 9 26 10 14 11 4 12
REMARK SMILES IDX 5 13 6 14 7 15 10 16 9 17 8 18 15 20 24 21 16 22 22 23 17 24
REMARK SMILES IDX 20 25 25 26 23 28 18 30 19 31 21 33 27 35
REMARK H PARENT 8 19 25 27 23 29 19 32 21 34 27 36
ROOT
ATOM      1  C   UNL     1       2.634  -0.141  -0.057  1.00  0.00     0.065 C 
ATOM      2  C   UNL     1       1.505   0.563  -0.221  1.00  0.00     0.208 C 
ATOM      3  O   UNL     1       0.224   0.074  -0.253  1.00  0.00    -0.463 OA
ATOM      4  C   UNL     1       0.033  -1.281  -0.137  1.00  0.00     0.147 A 
ATOM      5  C   UNL     1       1.110  -2.151   0.051  1.00  0.00     0.066 A 
ATOM      6  C   UNL     1       2.485  -1.615   0.085  1.00  0.00     0.200 C 
ATOM      7  O   UNL     1       3.442  -2.369   0.228  1.00  0.00    -0.288 OA
ATOM      8  C   UNL     1       0.897  -3.524   0.215  1.00  0.00     0.020 A 
ATOM      9  C   UNL     1      -0.401  -4.027   0.213  1.00  0.00     0.047 A 
ATOM     10  C   UNL     1      -1.473  -3.155   0.025  1.00  0.00     0.125 A 
ATOM     11  C   UNL     1      -1.285  -1.777  -0.186  1.00  0.00     0.069 A 
ENDROOT
BRANCH   1  12
ATOM     12  C   UNL     1       3.948   0.530  -0.055  1.00  0.00    -0.011 A 
ATOM     13  C   UNL     1       4.179   1.665   0.739  1.00  0.00     0.013 A 
ATOM     14  C   UNL     1       5.424   2.299   0.732  1.00  0.00     0.047 A 
ATOM     15  C   UNL     1       6.447   1.800  -0.064  1.00  0.00     0.115 A 
ATOM     16  C   UNL     1       4.999   0.042  -0.847  1.00  0.00     0.013 A 
ATOM     17  C   UNL     1       6.247   0.674  -0.854  1.00  0.00     0.047 A 
BRANCH  15  18
ATOM     18  O   UNL     1       7.646   2.447  -0.039  1.00  0.00    -0.508 OA
ATOM     19  H   UNL     1       8.267   1.969  -0.613  1.00  0.00     0.293 HD
ENDBRANCH  15  18
ENDBRANCH   1  12
BRANCH  11  20
ATOM     20  C   UNL     1      -2.500  -0.880  -0.407  1.00  0.00     0.188 C 
ATOM     21  C   UNL     1      -2.995  -0.283   0.930  1.00  0.00     0.179 C 
ATOM     22  O   UNL     1      -2.188   0.110  -1.406  1.00  0.00    -0.362 OA
ATOM     23  C   UNL     1      -4.219   0.631   0.716  1.00  0.00     0.177 C 
ATOM     24  C   UNL     1      -2.955   1.326  -1.355  1.00  0.00     0.176 C 
ATOM     25  C   UNL     1      -4.343   1.129  -0.726  1.00  0.00     0.177 C 
BRANCH  21  26
ATOM     26  O   UNL     1      -3.354  -1.267   1.917  1.00  0.00    -0.387 OA
ATOM     27  H   UNL     1      -3.471  -2.121   1.454  1.00  0.00     0.211 HD
ENDBRANCH  21  26
BRANCH  23  28
ATOM     28  O   UNL     1      -4.112   1.760   1.606  1.00  0.00    -0.387 OA
ATOM     29  H   UNL     1      -4.122   1.377   2.506  1.00  0.00     0.211 HD
ENDBRANCH  23  28
BRANCH  24  30
ATOM     30  C   UNL     1      -2.117   2.437  -0.696  1.00  0.00     0.191 C 
BRANCH  30  31
ATOM     31  O   UNL     1      -2.894   3.581  -0.364  1.00  0.00    -0.394 OA
ATOM     32  H   UNL     1      -3.363   3.367   0.470  1.00  0.00     0.210 HD
ENDBRANCH  30  31
ENDBRANCH  24  30
BRANCH  25  33
ATOM     33  O   UNL     1      -5.088   0.158  -1.482  1.00  0.00    -0.388 OA
ATOM     34  H   UNL     1      -5.115   0.467  -2.405  1.00  0.00     0.211 HD
ENDBRANCH  25  33
ENDBRANCH  11  20
BRANCH  10  35
ATOM     35  O   UNL     1      -2.753  -3.640   0.091  1.00  0.00    -0.507 OA
ATOM     36  H   UNL     1      -2.718  -4.614   0.110  1.00  0.00     0.293 HD
ENDBRANCH  10  35
TORSDOF 9
