REMARK SMILES O=c1c(-c2ccc(O)cc2)coc2c([C@@H]3O[C@H](CO)[C@@H](O)[C@H](O)[C@H]3O)c(O)ccc12
REMARK SMILES IDX 3 1 11 2 12 3 13 4 30 5 2 6 1 7 29 8 28 9 26 10 14 11 4 12
REMARK SMILES IDX 5 13 6 14 7 15 10 16 9 17 8 18 15 20 24 21 16 22 22 23 17 24
REMARK SMILES IDX 20 25 25 26 23 28 18 30 19 31 21 33 27 35
REMARK H PARENT 8 19 25 27 23 29 19 32 21 34 27 36
ROOT
ATOM      1  C   UNL     1       3.137   0.589   0.012  1.00  0.00     0.065 C 
ATOM      2  C   UNL     1       2.001   0.930  -0.614  1.00  0.00     0.208 C 
ATOM      3  O   UNL     1       0.740   0.456  -0.355  1.00  0.00    -0.463 OA
ATOM      4  C   UNL     1       0.582  -0.487   0.633  1.00  0.00     0.147 A 
ATOM      5  C   UNL     1       1.673  -0.955   1.371  1.00  0.00     0.066 A 
ATOM      6  C   UNL     1       3.023  -0.431   1.091  1.00  0.00     0.200 C 
ATOM      7  O   UNL     1       3.991  -0.830   1.730  1.00  0.00    -0.288 OA
ATOM      8  C   UNL     1       1.494  -1.915   2.371  1.00  0.00     0.020 A 
ATOM      9  C   UNL     1       0.220  -2.412   2.630  1.00  0.00     0.047 A 
ATOM     10  C   UNL     1      -0.869  -1.945   1.891  1.00  0.00     0.125 A 
ATOM     11  C   UNL     1      -0.716  -0.974   0.883  1.00  0.00     0.069 A 
ENDROOT
BRANCH   1  12
ATOM     12  C   UNL     1       4.427   1.182  -0.389  1.00  0.00    -0.011 A 
ATOM     13  C   UNL     1       5.541   0.364  -0.633  1.00  0.00     0.013 A 
ATOM     14  C   UNL     1       6.766   0.917  -1.018  1.00  0.00     0.047 A 
ATOM     15  C   UNL     1       6.880   2.295  -1.160  1.00  0.00     0.115 A 
ATOM     16  C   UNL     1       4.570   2.572  -0.532  1.00  0.00     0.013 A 
ATOM     17  C   UNL     1       5.793   3.125  -0.919  1.00  0.00     0.047 A 
BRANCH  15  18
ATOM     18  O   UNL     1       8.055   2.877  -1.532  1.00  0.00    -0.508 OA
ATOM     19  H   UNL     1       8.726   2.182  -1.631  1.00  0.00     0.293 HD
ENDBRANCH  15  18
ENDBRANCH   1  12
BRANCH  11  20
ATOM     20  C   UNL     1      -1.903  -0.470   0.075  1.00  0.00     0.188 C 
ATOM     21  C   UNL     1      -2.506  -1.570  -0.826  1.00  0.00     0.179 C 
ATOM     22  O   UNL     1      -2.861   0.073   1.001  1.00  0.00    -0.362 OA
ATOM     23  C   UNL     1      -3.783  -1.051  -1.487  1.00  0.00     0.177 C 
ATOM     24  C   UNL     1      -4.034   0.594   0.378  1.00  0.00     0.176 C 
ATOM     25  C   UNL     1      -4.752  -0.484  -0.451  1.00  0.00     0.177 C 
BRANCH  21  26
ATOM     26  O   UNL     1      -1.591  -1.952  -1.867  1.00  0.00    -0.387 OA
ATOM     27  H   UNL     1      -2.113  -2.533  -2.456  1.00  0.00     0.211 HD
ENDBRANCH  21  26
BRANCH  23  28
ATOM     28  O   UNL     1      -4.409  -2.120  -2.217  1.00  0.00    -0.387 OA
ATOM     29  H   UNL     1      -5.300  -1.779  -2.441  1.00  0.00     0.211 HD
ENDBRANCH  23  28
BRANCH  24  30
ATOM     30  C   UNL     1      -4.950   1.138   1.482  1.00  0.00     0.191 C 
BRANCH  30  31
ATOM     31  O   UNL     1      -6.122   1.736   0.930  1.00  0.00    -0.394 OA
ATOM     32  H   UNL     1      -5.925   2.683   0.804  1.00  0.00     0.210 HD
ENDBRANCH  30  31
ENDBRANCH  24  30
BRANCH  25  33
ATOM     33  O   UNL     1      -5.888   0.033  -1.159  1.00  0.00    -0.388 OA
ATOM     34  H   UNL     1      -6.407   0.553  -0.506  1.00  0.00     0.211 HD
ENDBRANCH  25  33
ENDBRANCH  11  20
BRANCH  10  35
ATOM     35  O   UNL     1      -2.113  -2.453   2.151  1.00  0.00    -0.507 OA
ATOM     36  H   UNL     1      -2.058  -3.058   2.909  1.00  0.00     0.293 HD
ENDBRANCH  10  35
TORSDOF 9
