REMARK SMILES O=c1c(-c2ccc(O)cc2)coc2c([C@@H]3O[C@H](CO)[C@@H](O)[C@H](O)[C@H]3O)c(O)ccc12
REMARK SMILES IDX 3 1 11 2 12 3 13 4 30 5 2 6 1 7 29 8 28 9 26 10 14 11 4 12
REMARK SMILES IDX 5 13 6 14 7 15 10 16 9 17 8 18 15 20 24 21 16 22 22 23 17 24
REMARK SMILES IDX 20 25 25 26 23 28 18 30 19 31 21 33 27 35
REMARK H PARENT 8 19 25 27 23 29 19 32 21 34 27 36
ROOT
ATOM      1  C   UNL     1       3.169  -0.229  -0.186  1.00  0.00     0.065 C 
ATOM      2  C   UNL     1       2.307   0.527   0.511  1.00  0.00     0.208 C 
ATOM      3  O   UNL     1       0.941   0.398   0.550  1.00  0.00    -0.463 OA
ATOM      4  C   UNL     1       0.362  -0.619  -0.174  1.00  0.00     0.147 A 
ATOM      5  C   UNL     1       1.126  -1.491  -0.955  1.00  0.00     0.066 A 
ATOM      6  C   UNL     1       2.593  -1.340  -0.991  1.00  0.00     0.200 C 
ATOM      7  O   UNL     1       3.283  -2.100  -1.659  1.00  0.00    -0.288 OA
ATOM      8  C   UNL     1       0.507  -2.494  -1.707  1.00  0.00     0.020 A 
ATOM      9  C   UNL     1      -0.878  -2.622  -1.673  1.00  0.00     0.047 A 
ATOM     10  C   UNL     1      -1.634  -1.761  -0.879  1.00  0.00     0.125 A 
ATOM     11  C   UNL     1      -1.041  -0.742  -0.117  1.00  0.00     0.069 A 
ENDROOT
BRANCH   1  12
ATOM     12  C   UNL     1       4.619   0.026  -0.112  1.00  0.00    -0.011 A 
ATOM     13  C   UNL     1       5.507  -1.011   0.208  1.00  0.00     0.013 A 
ATOM     14  C   UNL     1       6.881  -0.771   0.291  1.00  0.00     0.047 A 
ATOM     15  C   UNL     1       7.374   0.504   0.050  1.00  0.00     0.115 A 
ATOM     16  C   UNL     1       5.141   1.307  -0.359  1.00  0.00     0.013 A 
ATOM     17  C   UNL     1       6.516   1.548  -0.278  1.00  0.00     0.047 A 
BRANCH  15  18
ATOM     18  O   UNL     1       8.721   0.693   0.141  1.00  0.00    -0.508 OA
ATOM     19  H   UNL     1       8.924   1.612  -0.098  1.00  0.00     0.293 HD
ENDBRANCH  15  18
ENDBRANCH   1  12
BRANCH  11  20
ATOM     20  C   UNL     1      -1.860   0.253   0.689  1.00  0.00     0.188 C 
ATOM     21  C   UNL     1      -2.123   1.552  -0.113  1.00  0.00     0.179 C 
ATOM     22  O   UNL     1      -3.038  -0.408   1.173  1.00  0.00    -0.362 OA
ATOM     23  C   UNL     1      -3.463   1.547  -0.867  1.00  0.00     0.177 C 
ATOM     24  C   UNL     1      -4.182   0.447   1.317  1.00  0.00     0.176 C 
ATOM     25  C   UNL     1      -4.633   0.939  -0.065  1.00  0.00     0.177 C 
BRANCH  21  26
ATOM     26  O   UNL     1      -2.129   2.668   0.801  1.00  0.00    -0.387 OA
ATOM     27  H   UNL     1      -1.210   2.813   1.089  1.00  0.00     0.211 HD
ENDBRANCH  21  26
BRANCH  23  28
ATOM     28  O   UNL     1      -3.332   0.876  -2.130  1.00  0.00    -0.387 OA
ATOM     29  H   UNL     1      -3.282  -0.089  -1.970  1.00  0.00     0.211 HD
ENDBRANCH  23  28
BRANCH  24  30
ATOM     30  C   UNL     1      -5.283  -0.381   1.997  1.00  0.00     0.191 C 
BRANCH  30  31
ATOM     31  O   UNL     1      -5.582  -1.545   1.220  1.00  0.00    -0.394 OA
ATOM     32  H   UNL     1      -6.287  -2.022   1.693  1.00  0.00     0.210 HD
ENDBRANCH  30  31
ENDBRANCH  24  30
BRANCH  25  33
ATOM     33  O   UNL     1      -5.694   1.893   0.077  1.00  0.00    -0.388 OA
ATOM     34  H   UNL     1      -5.964   2.143  -0.826  1.00  0.00     0.211 HD
ENDBRANCH  25  33
ENDBRANCH  11  20
BRANCH  10  35
ATOM     35  O   UNL     1      -2.989  -1.942  -0.908  1.00  0.00    -0.507 OA
ATOM     36  H   UNL     1      -3.333  -1.731  -0.009  1.00  0.00     0.293 HD
ENDBRANCH  10  35
TORSDOF 9
