REMARK SMILES COc1cc(O)c2c(O)c3c(=O)cc(C)oc3cc2c1
REMARK SMILES IDX 15 1 14 2 13 3 11 4 12 5 10 6 8 7 7 8 5 9 4 10 3 11 20 12
REMARK SMILES IDX 19 13 18 14 17 15 16 16 9 17 6 19 2 21 1 22
REMARK H PARENT 9 18 6 20
ROOT
ATOM      1  C   UNL     1      -5.245  -1.167   0.851  1.00  0.00     0.088 C 
ATOM      2  C   UNL     1      -4.025  -0.567   0.226  1.00  0.00     0.105 C 
ATOM      3  C   UNL     1      -4.087   0.245  -0.839  1.00  0.00     0.095 C 
ATOM      4  C   UNL     1      -2.842   0.794  -1.395  1.00  0.00     0.196 C 
ATOM      5  O   UNL     1      -2.843   1.541  -2.367  1.00  0.00    -0.289 OA
ATOM      6  C   UNL     1      -1.588   0.410  -0.735  1.00  0.00     0.107 A 
ATOM      7  C   UNL     1      -0.344   0.875  -1.183  1.00  0.00     0.142 A 
ATOM      8  C   UNL     1       0.858   0.493  -0.533  1.00  0.00     0.067 A 
ATOM      9  C   UNL     1       2.155   0.916  -0.917  1.00  0.00     0.130 A 
ATOM     10  C   UNL     1       3.306   0.509  -0.241  1.00  0.00     0.093 A 
ATOM     11  C   UNL     1       3.197  -0.342   0.852  1.00  0.00     0.123 A 
ATOM     12  C   UNL     1       1.931  -0.776   1.255  1.00  0.00     0.055 A 
ATOM     13  C   UNL     1       0.764  -0.373   0.583  1.00  0.00    -0.004 A 
ATOM     14  C   UNL     1      -0.493  -0.829   1.016  1.00  0.00     0.057 A 
ATOM     15  C   UNL     1      -1.660  -0.439   0.361  1.00  0.00     0.142 A 
ATOM     16  O   UNL     1      -2.843  -0.933   0.852  1.00  0.00    -0.461 OA
ENDROOT
BRANCH   7  17
ATOM     17  O   UNL     1      -0.248   1.721  -2.271  1.00  0.00    -0.506 OA
ATOM     18  H   UNL     1      -1.160   1.891  -2.608  1.00  0.00     0.293 HD
ENDBRANCH   7  17
BRANCH   9  19
ATOM     19  O   UNL     1       2.358   1.756  -1.984  1.00  0.00    -0.507 OA
ATOM     20  H   UNL     1       1.473   1.954  -2.356  1.00  0.00     0.293 HD
ENDBRANCH   9  19
BRANCH  11  21
ATOM     21  O   UNL     1       4.233  -0.821   1.607  1.00  0.00    -0.497 OA
ATOM     22  C   UNL     1       5.542  -0.406   1.233  1.00  0.00     0.278 C 
ENDBRANCH  11  21
TORSDOF 3
