REMARK SMILES COc1cc(O)c2c(O)c3c(=O)cc(C)oc3cc2c1
REMARK SMILES IDX 15 1 14 2 13 3 11 4 12 5 10 6 8 7 7 8 5 9 4 10 3 11 20 12
REMARK SMILES IDX 19 13 18 14 17 15 16 16 9 17 6 19 2 21 1 22
REMARK H PARENT 9 18 6 20
ROOT
ATOM      1  C   UNL     1      -4.670   2.209  -0.682  1.00  0.00     0.088 C 
ATOM      2  C   UNL     1      -3.684   1.118  -0.396  1.00  0.00     0.105 C 
ATOM      3  C   UNL     1      -4.063  -0.134  -0.103  1.00  0.00     0.095 C 
ATOM      4  C   UNL     1      -3.033  -1.148   0.166  1.00  0.00     0.196 C 
ATOM      5  O   UNL     1      -3.325  -2.307   0.438  1.00  0.00    -0.289 OA
ATOM      6  C   UNL     1      -1.632  -0.715   0.096  1.00  0.00     0.107 A 
ATOM      7  C   UNL     1      -0.572  -1.599   0.334  1.00  0.00     0.142 A 
ATOM      8  C   UNL     1       0.777  -1.162   0.262  1.00  0.00     0.067 A 
ATOM      9  C   UNL     1       1.904  -1.988   0.488  1.00  0.00     0.130 A 
ATOM     10  C   UNL     1       3.206  -1.500   0.402  1.00  0.00     0.093 A 
ATOM     11  C   UNL     1       3.435  -0.165   0.086  1.00  0.00     0.123 A 
ATOM     12  C   UNL     1       2.345   0.676  -0.143  1.00  0.00     0.055 A 
ATOM     13  C   UNL     1       1.022   0.197  -0.060  1.00  0.00    -0.004 A 
ATOM     14  C   UNL     1      -0.058   1.066  -0.295  1.00  0.00     0.057 A 
ATOM     15  C   UNL     1      -1.374   0.612  -0.218  1.00  0.00     0.142 A 
ATOM     16  O   UNL     1      -2.363   1.532  -0.463  1.00  0.00    -0.461 OA
ENDROOT
BRANCH   7  17
ATOM     17  O   UNL     1      -0.805  -2.924   0.648  1.00  0.00    -0.506 OA
ATOM     18  H   UNL     1      -1.781  -3.070   0.659  1.00  0.00     0.293 HD
ENDBRANCH   7  17
BRANCH   9  19
ATOM     19  O   UNL     1       1.782  -3.317   0.805  1.00  0.00    -0.507 OA
ATOM     20  H   UNL     1       0.822  -3.512   0.829  1.00  0.00     0.293 HD
ENDBRANCH   9  19
BRANCH  11  21
ATOM     21  O   UNL     1       4.754   0.193   0.032  1.00  0.00    -0.497 OA
ATOM     22  C   UNL     1       5.047   1.547  -0.287  1.00  0.00     0.278 C 
ENDBRANCH  11  21
TORSDOF 3
