REMARK SMILES COc1cc(O)c2c(O)c3c(=O)cc(C)oc3cc2c1
REMARK SMILES IDX 15 1 14 2 13 3 11 4 12 5 10 6 8 7 7 8 5 9 4 10 3 11 20 12
REMARK SMILES IDX 19 13 18 14 17 15 16 16 9 17 6 19 2 21 1 22
REMARK H PARENT 9 18 6 20
ROOT
ATOM      1  C   UNL     1       4.782   2.054  -0.031  1.00  0.00     0.088 C 
ATOM      2  C   UNL     1       3.719   1.042   0.264  1.00  0.00     0.105 C 
ATOM      3  C   UNL     1       3.983  -0.119   0.881  1.00  0.00     0.095 C 
ATOM      4  C   UNL     1       2.883  -1.060   1.135  1.00  0.00     0.196 C 
ATOM      5  O   UNL     1       3.070  -2.135   1.696  1.00  0.00    -0.289 OA
ATOM      6  C   UNL     1       1.543  -0.661   0.689  1.00  0.00     0.107 A 
ATOM      7  C   UNL     1       0.424  -1.482   0.880  1.00  0.00     0.142 A 
ATOM      8  C   UNL     1      -0.864  -1.078   0.441  1.00  0.00     0.067 A 
ATOM      9  C   UNL     1      -2.044  -1.845   0.595  1.00  0.00     0.130 A 
ATOM     10  C   UNL     1      -3.282  -1.395   0.143  1.00  0.00     0.093 A 
ATOM     11  C   UNL     1      -3.392  -0.157  -0.483  1.00  0.00     0.123 A 
ATOM     12  C   UNL     1      -2.247   0.624  -0.650  1.00  0.00     0.055 A 
ATOM     13  C   UNL     1      -0.988   0.181  -0.198  1.00  0.00    -0.004 A 
ATOM     14  C   UNL     1       0.149   0.988  -0.379  1.00  0.00     0.057 A 
ATOM     15  C   UNL     1       1.404   0.569   0.061  1.00  0.00     0.142 A 
ATOM     16  O   UNL     1       2.456   1.424  -0.159  1.00  0.00    -0.461 OA
ENDROOT
BRANCH   7  17
ATOM     17  O   UNL     1       0.539  -2.710   1.502  1.00  0.00    -0.506 OA
ATOM     18  H   UNL     1       1.486  -2.844   1.745  1.00  0.00     0.293 HD
ENDBRANCH   7  17
BRANCH   9  19
ATOM     19  O   UNL     1      -2.039  -3.077   1.198  1.00  0.00    -0.507 OA
ATOM     20  H   UNL     1      -1.111  -3.257   1.460  1.00  0.00     0.293 HD
ENDBRANCH   9  19
BRANCH  11  21
ATOM     21  O   UNL     1      -4.657   0.173  -0.882  1.00  0.00    -0.497 OA
ATOM     22  C   UNL     1      -4.829   1.427  -1.528  1.00  0.00     0.278 C 
ENDBRANCH  11  21
TORSDOF 3
