REMARK SMILES N#C/C(=C\CO[C@@H]1O[C@H](CO)[C@@H](O)[C@H](O)[C@H]1O)CO
REMARK SMILES IDX 5 1 4 2 3 3 2 4 1 5 18 6 19 7 6 9 7 10 16 11 8 12 14 13 9 14
REMARK SMILES IDX 12 15 17 16 15 18 10 20 11 21 13 23
REMARK H PARENT 19 8 17 17 15 19 11 22 13 24
ROOT
ATOM      1  C   UNL     1       1.934  -0.557   0.658  1.00  0.00     0.192 C 
ENDROOT
BRANCH   1   2
ATOM      2  C   UNL     1       2.829  -1.688   0.246  1.00  0.00     0.018 C 
ATOM      3  C   UNL     1       4.075  -1.605  -0.265  1.00  0.00     0.053 C 
ATOM      4  C   UNL     1       4.725  -0.348  -0.449  1.00  0.00     0.097 C 
ATOM      5  N   UNL     1       5.281   0.658  -0.604  1.00  0.00    -0.193 NA
BRANCH   3   6
ATOM      6  C   UNL     1       4.859  -2.840  -0.618  1.00  0.00     0.202 C 
BRANCH   6   7
ATOM      7  O   UNL     1       4.857  -3.048  -2.024  1.00  0.00    -0.391 OA
ATOM      8  H   UNL     1       5.296  -2.288  -2.442  1.00  0.00     0.211 HD
ENDBRANCH   6   7
ENDBRANCH   3   6
ENDBRANCH   1   2
BRANCH   1   9
ATOM      9  O   UNL     1       0.731  -0.705  -0.084  1.00  0.00    -0.346 OA
BRANCH   9  10
ATOM     10  C   UNL     1      -0.408  -0.076   0.512  1.00  0.00     0.282 C 
ATOM     11  C   UNL     1      -0.300   1.466   0.506  1.00  0.00     0.202 C 
ATOM     12  O   UNL     1      -1.537  -0.511  -0.256  1.00  0.00    -0.341 OA
ATOM     13  C   UNL     1      -1.628   2.090   0.931  1.00  0.00     0.179 C 
ATOM     14  C   UNL     1      -2.786   0.005   0.201  1.00  0.00     0.178 C 
ATOM     15  C   UNL     1      -2.801   1.539   0.125  1.00  0.00     0.177 C 
BRANCH  11  16
ATOM     16  O   UNL     1       0.708   1.939   1.418  1.00  0.00    -0.385 OA
ATOM     17  H   UNL     1       0.603   2.913   1.420  1.00  0.00     0.211 HD
ENDBRANCH  11  16
BRANCH  13  18
ATOM     18  O   UNL     1      -1.549   3.518   0.778  1.00  0.00    -0.387 OA
ATOM     19  H   UNL     1      -2.470   3.832   0.893  1.00  0.00     0.211 HD
ENDBRANCH  13  18
BRANCH  14  20
ATOM     20  C   UNL     1      -3.891  -0.609  -0.670  1.00  0.00     0.191 C 
BRANCH  20  21
ATOM     21  O   UNL     1      -5.172  -0.100  -0.306  1.00  0.00    -0.394 OA
ATOM     22  H   UNL     1      -5.827  -0.604  -0.826  1.00  0.00     0.210 HD
ENDBRANCH  20  21
ENDBRANCH  14  20
BRANCH  15  23
ATOM     23  O   UNL     1      -3.999   2.110   0.668  1.00  0.00    -0.387 OA
ATOM     24  H   UNL     1      -4.741   1.542   0.361  1.00  0.00     0.211 HD
ENDBRANCH  15  23
ENDBRANCH   9  10
ENDBRANCH   1   9
TORSDOF 10
