REMARK SMILES N#C/C(=C\CO[C@@H]1O[C@H](CO)[C@@H](O)[C@H](O)[C@H]1O)CO
REMARK SMILES IDX 5 1 4 2 3 3 2 4 1 5 18 6 19 7 6 9 7 10 16 11 8 12 14 13 9 14
REMARK SMILES IDX 12 15 17 16 15 18 10 20 11 21 13 23
REMARK H PARENT 19 8 17 17 15 19 11 22 13 24
ROOT
ATOM      1  C   UNL     1       1.503  -0.052  -1.199  1.00  0.00     0.192 C 
ENDROOT
BRANCH   1   2
ATOM      2  C   UNL     1       2.981  -0.210  -1.010  1.00  0.00     0.018 C 
ATOM      3  C   UNL     1       3.892   0.769  -0.832  1.00  0.00     0.053 C 
ATOM      4  C   UNL     1       3.514   2.145  -0.834  1.00  0.00     0.097 C 
ATOM      5  N   UNL     1       3.222   3.267  -0.842  1.00  0.00    -0.193 NA
BRANCH   3   6
ATOM      6  C   UNL     1       5.354   0.458  -0.668  1.00  0.00     0.202 C 
BRANCH   6   7
ATOM      7  O   UNL     1       5.719   0.526   0.703  1.00  0.00    -0.391 OA
ATOM      8  H   UNL     1       5.652   1.454   0.987  1.00  0.00     0.211 HD
ENDBRANCH   6   7
ENDBRANCH   3   6
ENDBRANCH   1   2
BRANCH   1   9
ATOM      9  O   UNL     1       0.877  -0.753  -0.129  1.00  0.00    -0.346 OA
BRANCH   9  10
ATOM     10  C   UNL     1      -0.550  -0.752  -0.252  1.00  0.00     0.282 C 
ATOM     11  C   UNL     1      -1.092  -1.624   0.895  1.00  0.00     0.202 C 
ATOM     12  O   UNL     1      -1.066   0.573  -0.153  1.00  0.00    -0.341 OA
ATOM     13  C   UNL     1      -2.617  -1.628   0.856  1.00  0.00     0.179 C 
ATOM     14  C   UNL     1      -2.504   0.606  -0.274  1.00  0.00     0.178 C 
ATOM     15  C   UNL     1      -3.163  -0.199   0.854  1.00  0.00     0.177 C 
BRANCH  11  16
ATOM     16  O   UNL     1      -0.621  -2.977   0.797  1.00  0.00    -0.385 OA
ATOM     17  H   UNL     1       0.354  -2.905   0.752  1.00  0.00     0.211 HD
ENDBRANCH  11  16
BRANCH  13  18
ATOM     18  O   UNL     1      -3.145  -2.329   1.993  1.00  0.00    -0.387 OA
ATOM     19  H   UNL     1      -2.636  -3.165   2.037  1.00  0.00     0.211 HD
ENDBRANCH  13  18
BRANCH  14  20
ATOM     20  C   UNL     1      -2.939   2.074  -0.240  1.00  0.00     0.191 C 
BRANCH  20  21
ATOM     21  O   UNL     1      -2.282   2.791  -1.288  1.00  0.00    -0.394 OA
ATOM     22  H   UNL     1      -1.327   2.645  -1.147  1.00  0.00     0.210 HD
ENDBRANCH  20  21
ENDBRANCH  14  20
BRANCH  15  23
ATOM     23  O   UNL     1      -4.582  -0.241   0.696  1.00  0.00    -0.387 OA
ATOM     24  H   UNL     1      -4.895  -0.900   1.350  1.00  0.00     0.211 HD
ENDBRANCH  15  23
ENDBRANCH   9  10
ENDBRANCH   1   9
TORSDOF 10
