REMARK SMILES N#C/C(=C\CO[C@@H]1O[C@H](CO)[C@@H](O)[C@H](O)[C@H]1O)CO
REMARK SMILES IDX 5 1 4 2 3 3 2 4 1 5 18 6 19 7 6 9 7 10 16 11 8 12 14 13 9 14
REMARK SMILES IDX 12 15 17 16 15 18 10 20 11 21 13 23
REMARK H PARENT 19 8 17 17 15 19 11 22 13 24
ROOT
ATOM      1  C   UNL     1       1.720   0.564   0.460  1.00  0.00     0.192 C 
ENDROOT
BRANCH   1   2
ATOM      2  C   UNL     1       2.938   0.832  -0.370  1.00  0.00     0.018 C 
ATOM      3  C   UNL     1       3.951  -0.018  -0.635  1.00  0.00     0.053 C 
ATOM      4  C   UNL     1       3.955  -1.354  -0.135  1.00  0.00     0.097 C 
ATOM      5  N   UNL     1       3.983  -2.441   0.268  1.00  0.00    -0.193 NA
BRANCH   3   6
ATOM      6  C   UNL     1       5.104   0.388  -1.512  1.00  0.00     0.202 C 
BRANCH   6   7
ATOM      7  O   UNL     1       6.244   0.675  -0.713  1.00  0.00    -0.391 OA
ATOM      8  H   UNL     1       6.589  -0.170  -0.374  1.00  0.00     0.211 HD
ENDBRANCH   6   7
ENDBRANCH   3   6
ENDBRANCH   1   2
BRANCH   1   9
ATOM      9  O   UNL     1       0.598   0.770  -0.394  1.00  0.00    -0.346 OA
BRANCH   9  10
ATOM     10  C   UNL     1      -0.641   0.650   0.326  1.00  0.00     0.282 C 
ATOM     11  C   UNL     1      -1.753   1.021  -0.665  1.00  0.00     0.202 C 
ATOM     12  O   UNL     1      -0.806  -0.685   0.791  1.00  0.00    -0.341 OA
ATOM     13  C   UNL     1      -3.111   1.039   0.043  1.00  0.00     0.179 C 
ATOM     14  C   UNL     1      -2.153  -1.060   1.155  1.00  0.00     0.178 C 
ATOM     15  C   UNL     1      -3.150   0.108   1.263  1.00  0.00     0.177 C 
BRANCH  11  16
ATOM     16  O   UNL     1      -1.526   2.298  -1.281  1.00  0.00    -0.385 OA
ATOM     17  H   UNL     1      -0.588   2.280  -1.560  1.00  0.00     0.211 HD
ENDBRANCH  11  16
BRANCH  13  18
ATOM     18  O   UNL     1      -4.136   0.669  -0.887  1.00  0.00    -0.387 OA
ATOM     19  H   UNL     1      -4.070   1.304  -1.627  1.00  0.00     0.211 HD
ENDBRANCH  13  18
BRANCH  14  20
ATOM     20  C   UNL     1      -2.624  -2.131   0.160  1.00  0.00     0.191 C 
BRANCH  20  21
ATOM     21  O   UNL     1      -1.733  -3.248   0.199  1.00  0.00    -0.394 OA
ATOM     22  H   UNL     1      -0.831  -2.874   0.216  1.00  0.00     0.210 HD
ENDBRANCH  20  21
ENDBRANCH  14  20
BRANCH  15  23
ATOM     23  O   UNL     1      -2.803   0.875   2.430  1.00  0.00    -0.387 OA
ATOM     24  H   UNL     1      -3.571   1.436   2.644  1.00  0.00     0.211 HD
ENDBRANCH  15  23
ENDBRANCH   9  10
ENDBRANCH   1   9
TORSDOF 10
