REMARK SMILES COc1cc2ccc(=O)oc2cc1O
REMARK SMILES IDX 3 1 13 2 12 3 11 4 5 5 4 6 6 7 7 8 8 9 9 10 10 11 2 12 1 13
REMARK SMILES IDX 14 14
REMARK H PARENT 14 15
ROOT
ATOM      1  C   UNL     1       1.388  -0.483  -0.256  1.00  0.00     0.161 A 
ATOM      2  C   UNL     1       0.833  -1.751  -0.024  1.00  0.00     0.161 A 
ATOM      3  C   UNL     1      -0.525  -1.923   0.207  1.00  0.00     0.098 A 
ATOM      4  C   UNL     1      -1.339  -0.797   0.204  1.00  0.00     0.142 A 
ATOM      5  C   UNL     1      -0.823   0.480  -0.023  1.00  0.00     0.022 A 
ATOM      6  C   UNL     1       0.551   0.636  -0.254  1.00  0.00     0.062 A 
ATOM      7  C   UNL     1      -1.732   1.615  -0.012  1.00  0.00     0.019 C 
ATOM      8  C   UNL     1      -3.034   1.415   0.214  1.00  0.00     0.094 C 
ATOM      9  C   UNL     1      -3.600   0.076   0.455  1.00  0.00     0.336 C 
ATOM     10  O   UNL     1      -4.800  -0.067   0.658  1.00  0.00    -0.246 OA
ATOM     11  O   UNL     1      -2.714  -0.992   0.440  1.00  0.00    -0.423 OA
ENDROOT
BRANCH   1  12
ATOM     12  O   UNL     1       2.743  -0.480  -0.467  1.00  0.00    -0.493 OA
ATOM     13  C   UNL     1       3.351   0.784  -0.706  1.00  0.00     0.278 C 
ENDBRANCH   1  12
BRANCH   2  14
ATOM     14  O   UNL     1       1.633  -2.861  -0.021  1.00  0.00    -0.504 OA
ATOM     15  H   UNL     1       2.534  -2.528  -0.199  1.00  0.00     0.293 HD
ENDBRANCH   2  14
TORSDOF 2
