REMARK SMILES COc1cc2ccc(=O)oc2cc1OC
REMARK SMILES IDX 3 1 13 2 12 3 11 4 5 5 4 6 6 7 7 8 8 9 9 10 10 11 2 12 1 13
REMARK SMILES IDX 14 14 15 15
REMARK H PARENT
ROOT
ATOM      1  C   UNL     1      -1.151   0.632  -0.197  1.00  0.00     0.161 A 
ATOM      2  C   UNL     1      -1.189  -0.751   0.091  1.00  0.00     0.164 A 
ATOM      3  C   UNL     1       0.005  -1.452   0.277  1.00  0.00     0.098 A 
ATOM      4  C   UNL     1       1.217  -0.772   0.174  1.00  0.00     0.142 A 
ATOM      5  C   UNL     1       1.274   0.589  -0.108  1.00  0.00     0.022 A 
ATOM      6  C   UNL     1       0.082   1.293  -0.295  1.00  0.00     0.062 A 
ATOM      7  C   UNL     1       2.574   1.234  -0.201  1.00  0.00     0.019 C 
ATOM      8  C   UNL     1       3.683   0.512  -0.013  1.00  0.00     0.094 C 
ATOM      9  C   UNL     1       3.646  -0.930   0.287  1.00  0.00     0.336 C 
ATOM     10  O   UNL     1       4.684  -1.561   0.453  1.00  0.00    -0.246 OA
ATOM     11  O   UNL     1       2.394  -1.522   0.369  1.00  0.00    -0.423 OA
ENDROOT
BRANCH   1  12
ATOM     12  O   UNL     1      -2.371   1.242  -0.364  1.00  0.00    -0.493 OA
ATOM     13  C   UNL     1      -2.385   2.632  -0.655  1.00  0.00     0.278 C 
ENDBRANCH   1  12
BRANCH   2  14
ATOM     14  O   UNL     1      -2.439  -1.316   0.168  1.00  0.00    -0.493 OA
ATOM     15  C   UNL     1      -2.518  -2.705   0.456  1.00  0.00     0.278 C 
ENDBRANCH   2  14
TORSDOF 2
