REMARK SMILES COc1cc2ccc(=O)oc2cc1OC
REMARK SMILES IDX 3 1 13 2 12 3 11 4 5 5 4 6 6 7 7 8 8 9 9 10 10 11 2 12 1 13
REMARK SMILES IDX 14 14 15 15
REMARK H PARENT
ROOT
ATOM      1  C   UNL     1      -1.164  -0.608  -0.169  1.00  0.00     0.161 A 
ATOM      2  C   UNL     1      -1.175   0.754   0.209  1.00  0.00     0.164 A 
ATOM      3  C   UNL     1       0.033   1.429   0.396  1.00  0.00     0.098 A 
ATOM      4  C   UNL     1       1.232   0.745   0.207  1.00  0.00     0.142 A 
ATOM      5  C   UNL     1       1.263  -0.595  -0.165  1.00  0.00     0.022 A 
ATOM      6  C   UNL     1       0.057  -1.274  -0.353  1.00  0.00     0.062 A 
ATOM      7  C   UNL     1       2.551  -1.246  -0.345  1.00  0.00     0.019 C 
ATOM      8  C   UNL     1       3.675  -0.548  -0.151  1.00  0.00     0.094 C 
ATOM      9  C   UNL     1       3.666   0.871   0.243  1.00  0.00     0.336 C 
ATOM     10  O   UNL     1       4.716   1.480   0.412  1.00  0.00    -0.246 OA
ATOM     11  O   UNL     1       2.425   1.469   0.409  1.00  0.00    -0.423 OA
ENDROOT
BRANCH   1  12
ATOM     12  O   UNL     1      -2.396  -1.194  -0.332  1.00  0.00    -0.493 OA
ATOM     13  C   UNL     1      -2.438  -2.561  -0.712  1.00  0.00     0.278 C 
ENDBRANCH   1  12
BRANCH   2  14
ATOM     14  O   UNL     1      -2.414   1.325   0.367  1.00  0.00    -0.493 OA
ATOM     15  C   UNL     1      -2.466   2.693   0.746  1.00  0.00     0.278 C 
ENDBRANCH   2  14
TORSDOF 2
