REMARK SMILES COc1cc2ccc(=O)oc2cc1O
REMARK SMILES IDX 3 1 13 2 12 3 11 4 5 5 4 6 6 7 7 8 8 9 9 10 10 11 2 12 1 13
REMARK SMILES IDX 14 14
REMARK H PARENT 14 15
ROOT
ATOM      1  C   UNL     1      -1.516   0.228  -0.012  1.00  0.00     0.161 A 
ATOM      2  C   UNL     1      -1.134   1.548   0.288  1.00  0.00     0.161 A 
ATOM      3  C   UNL     1       0.207   1.899   0.419  1.00  0.00     0.098 A 
ATOM      4  C   UNL     1       1.172   0.913   0.245  1.00  0.00     0.142 A 
ATOM      5  C   UNL     1       0.829  -0.404  -0.054  1.00  0.00     0.022 A 
ATOM      6  C   UNL     1      -0.523  -0.745  -0.182  1.00  0.00     0.062 A 
ATOM      7  C   UNL     1       1.890  -1.385  -0.222  1.00  0.00     0.019 C 
ATOM      8  C   UNL     1       3.164  -1.007  -0.089  1.00  0.00     0.094 C 
ATOM      9  C   UNL     1       3.550   0.380   0.227  1.00  0.00     0.336 C 
ATOM     10  O   UNL     1       4.730   0.691   0.342  1.00  0.00    -0.246 OA
ATOM     11  O   UNL     1       2.520   1.298   0.383  1.00  0.00    -0.423 OA
ENDROOT
BRANCH   1  12
ATOM     12  O   UNL     1      -2.863   0.002  -0.116  1.00  0.00    -0.493 OA
ATOM     13  C   UNL     1      -3.289  -1.319  -0.419  1.00  0.00     0.278 C 
ENDBRANCH   1  12
BRANCH   2  14
ATOM     14  O   UNL     1      -2.104   2.500   0.455  1.00  0.00    -0.504 OA
ATOM     15  H   UNL     1      -1.688   3.353   0.656  1.00  0.00     0.293 HD
ENDBRANCH   2  14
TORSDOF 2
