REMARK SMILES COc1cc2ccc(=O)oc2cc1OC
REMARK SMILES IDX 3 1 13 2 12 3 11 4 5 5 4 6 6 7 7 8 8 9 9 10 10 11 2 12 1 13
REMARK SMILES IDX 14 14 15 15
REMARK H PARENT
ROOT
ATOM      1  C   UNL     1      -1.107  -0.711   0.155  1.00  0.00     0.161 A 
ATOM      2  C   UNL     1      -1.220   0.582  -0.407  1.00  0.00     0.164 A 
ATOM      3  C   UNL     1      -0.075   1.361  -0.585  1.00  0.00     0.098 A 
ATOM      4  C   UNL     1       1.164   0.848  -0.205  1.00  0.00     0.142 A 
ATOM      5  C   UNL     1       1.296  -0.421   0.348  1.00  0.00     0.022 A 
ATOM      6  C   UNL     1       0.152  -1.203   0.529  1.00  0.00     0.062 A 
ATOM      7  C   UNL     1       2.620  -0.892   0.722  1.00  0.00     0.019 C 
ATOM      8  C   UNL     1       3.680  -0.101   0.527  1.00  0.00     0.094 C 
ATOM      9  C   UNL     1       3.564   1.246  -0.058  1.00  0.00     0.336 C 
ATOM     10  O   UNL     1       4.558   1.944  -0.223  1.00  0.00    -0.246 OA
ATOM     11  O   UNL     1       2.290   1.672  -0.406  1.00  0.00    -0.423 OA
ENDROOT
BRANCH   1  12
ATOM     12  O   UNL     1      -2.282  -1.407   0.295  1.00  0.00    -0.493 OA
ATOM     13  C   UNL     1      -2.220  -2.711   0.854  1.00  0.00     0.278 C 
ENDBRANCH   1  12
BRANCH   2  14
ATOM     14  O   UNL     1      -2.490   0.982  -0.743  1.00  0.00    -0.493 OA
ATOM     15  C   UNL     1      -2.645   2.276  -1.310  1.00  0.00     0.278 C 
ENDBRANCH   2  14
TORSDOF 2
