REMARK SMILES COc1cc2ccc(=O)oc2cc1O
REMARK SMILES IDX 3 1 13 2 12 3 11 4 5 5 4 6 6 7 7 8 8 9 9 10 10 11 2 12 1 13
REMARK SMILES IDX 14 14
REMARK H PARENT 14 15
ROOT
ATOM      1  C   UNL     1       1.430  -0.351   0.127  1.00  0.00     0.161 A 
ATOM      2  C   UNL     1       1.075  -1.503  -0.592  1.00  0.00     0.161 A 
ATOM      3  C   UNL     1      -0.229  -1.729  -1.011  1.00  0.00     0.098 A 
ATOM      4  C   UNL     1      -1.193  -0.778  -0.700  1.00  0.00     0.142 A 
ATOM      5  C   UNL     1      -0.877   0.379   0.013  1.00  0.00     0.022 A 
ATOM      6  C   UNL     1       0.445   0.593   0.429  1.00  0.00     0.062 A 
ATOM      7  C   UNL     1      -1.936   1.334   0.305  1.00  0.00     0.019 C 
ATOM      8  C   UNL     1      -3.180   1.085  -0.114  1.00  0.00     0.094 C 
ATOM      9  C   UNL     1      -3.536  -0.130  -0.868  1.00  0.00     0.336 C 
ATOM     10  O   UNL     1      -4.689  -0.322  -1.234  1.00  0.00    -0.246 OA
ATOM     11  O   UNL     1      -2.510  -1.026  -1.134  1.00  0.00    -0.423 OA
ENDROOT
BRANCH   1  12
ATOM     12  O   UNL     1       2.757  -0.274   0.468  1.00  0.00    -0.493 OA
ATOM     13  C   UNL     1       3.164   0.877   1.199  1.00  0.00     0.278 C 
ENDBRANCH   1  12
BRANCH   2  14
ATOM     14  O   UNL     1       2.023  -2.440  -0.899  1.00  0.00    -0.504 OA
ATOM     15  H   UNL     1       2.856  -2.097  -0.521  1.00  0.00     0.293 HD
ENDBRANCH   2  14
TORSDOF 2
