REMARK SMILES COc1cc(O)c2c(O)c3c(=O)oc(C)cc3cc2c1
REMARK SMILES IDX 15 1 14 2 16 3 17 4 18 5 19 6 20 7 3 8 4 9 5 10 7 11 8 12
REMARK SMILES IDX 10 13 11 14 12 15 13 16 9 17 2 19 1 20 6 21
REMARK H PARENT 9 18 6 22
ROOT
ATOM      1  C   UNL     1       5.303   0.568   0.654  1.00  0.00     0.088 C 
ATOM      2  C   UNL     1       3.898   0.060   0.598  1.00  0.00     0.105 C 
ATOM      3  C   UNL     1       2.850   0.805   0.226  1.00  0.00     0.051 C 
ATOM      4  C   UNL     1       1.526   0.199   0.211  1.00  0.00    -0.003 A 
ATOM      5  C   UNL     1       0.408   0.948  -0.172  1.00  0.00     0.018 A 
ATOM      6  C   UNL     1      -0.879   0.384  -0.195  1.00  0.00    -0.007 A 
ATOM      7  C   UNL     1      -1.986   1.166  -0.585  1.00  0.00     0.055 A 
ATOM      8  C   UNL     1      -3.275   0.631  -0.617  1.00  0.00     0.123 A 
ATOM      9  C   UNL     1      -3.465  -0.698  -0.255  1.00  0.00     0.093 A 
ATOM     10  C   UNL     1      -2.381  -1.481   0.133  1.00  0.00     0.130 A 
ATOM     11  C   UNL     1      -1.061  -0.970   0.176  1.00  0.00     0.067 A 
ATOM     12  C   UNL     1       0.086  -1.716   0.562  1.00  0.00     0.142 A 
ATOM     13  C   UNL     1       1.366  -1.135   0.578  1.00  0.00     0.110 A 
ATOM     14  C   UNL     1       2.553  -1.923   0.982  1.00  0.00     0.347 C 
ATOM     15  O   UNL     1       2.424  -3.100   1.308  1.00  0.00    -0.246 OA
ATOM     16  O   UNL     1       3.763  -1.294   0.975  1.00  0.00    -0.428 OA
ENDROOT
BRANCH  12  17
ATOM     17  O   UNL     1      -0.112  -3.037   0.920  1.00  0.00    -0.506 OA
ATOM     18  H   UNL     1       0.758  -3.433   1.163  1.00  0.00     0.293 HD
ENDBRANCH  12  17
BRANCH   8  19
ATOM     19  O   UNL     1      -4.414   1.296  -0.978  1.00  0.00    -0.497 OA
ATOM     20  C   UNL     1      -4.280   2.659  -1.358  1.00  0.00     0.278 C 
ENDBRANCH   8  19
BRANCH  10  21
ATOM     21  O   UNL     1      -2.672  -2.778   0.470  1.00  0.00    -0.507 OA
ATOM     22  H   UNL     1      -1.823  -3.201   0.718  1.00  0.00     0.293 HD
ENDBRANCH  10  21
TORSDOF 3
