REMARK SMILES COc1cc(O)c2c(O)c(C(C)=O)c(C)cc2c1
REMARK SMILES IDX 15 1 14 2 16 3 17 4 18 5 3 6 4 7 5 8 7 9 8 10 10 11 11 12
REMARK SMILES IDX 13 13 12 14 9 15 2 17 1 18 6 19
REMARK H PARENT 9 16 6 20
ROOT
ATOM      1  C   UNL     1      -2.754  -1.030  -2.010  1.00  0.00     0.045 C 
ATOM      2  C   UNL     1      -1.704  -0.572  -1.037  1.00  0.00    -0.036 A 
ATOM      3  C   UNL     1      -0.356  -0.684  -1.424  1.00  0.00     0.013 A 
ATOM      4  C   UNL     1       0.702  -0.337  -0.566  1.00  0.00    -0.007 A 
ATOM      5  C   UNL     1       2.036  -0.466  -0.995  1.00  0.00     0.055 A 
ATOM      6  C   UNL     1       3.111  -0.143  -0.162  1.00  0.00     0.123 A 
ATOM      7  C   UNL     1       2.856   0.317   1.124  1.00  0.00     0.093 A 
ATOM      8  C   UNL     1       1.537   0.449   1.559  1.00  0.00     0.130 A 
ATOM      9  C   UNL     1       0.427   0.131   0.736  1.00  0.00     0.066 A 
ATOM     10  C   UNL     1      -0.934   0.247   1.121  1.00  0.00     0.138 A 
ATOM     11  C   UNL     1      -1.991  -0.053   0.236  1.00  0.00     0.063 A 
ENDROOT
BRANCH  11  12
ATOM     12  C   UNL     1      -3.376   0.204   0.717  1.00  0.00     0.163 C 
ATOM     13  O   UNL     1      -3.640  -0.055   1.892  1.00  0.00    -0.294 OA
ATOM     14  C   UNL     1      -4.379   0.856  -0.194  1.00  0.00     0.093 C 
ENDBRANCH  11  12
BRANCH  10  15
ATOM     15  O   UNL     1      -1.190   0.670   2.414  1.00  0.00    -0.506 OA
ATOM     16  H   UNL     1      -2.125   0.436   2.626  1.00  0.00     0.293 HD
ENDBRANCH  10  15
BRANCH   6  17
ATOM     17  O   UNL     1       4.344  -0.322  -0.724  1.00  0.00    -0.497 OA
ATOM     18  C   UNL     1       5.469  -0.012   0.090  1.00  0.00     0.278 C 
ENDBRANCH   6  17
BRANCH   8  19
ATOM     19  O   UNL     1       1.379   0.915   2.842  1.00  0.00    -0.507 OA
ATOM     20  H   UNL     1       0.413   0.957   3.004  1.00  0.00     0.293 HD
ENDBRANCH   8  19
TORSDOF 4
