REMARK SMILES COc1cc(O)c2c(O)c3c(=O)oc(C)cc3cc2c1
REMARK SMILES IDX 15 1 14 2 16 3 17 4 18 5 19 6 20 7 3 8 4 9 5 10 7 11 8 12
REMARK SMILES IDX 10 13 11 14 12 15 13 16 9 17 2 19 1 20 6 21
REMARK H PARENT 9 18 6 22
ROOT
ATOM      1  C   UNL     1       5.462   1.162   0.027  1.00  0.00     0.088 C 
ATOM      2  C   UNL     1       4.084   0.623  -0.187  1.00  0.00     0.105 C 
ATOM      3  C   UNL     1       2.988   1.127   0.391  1.00  0.00     0.051 C 
ATOM      4  C   UNL     1       1.697   0.517   0.107  1.00  0.00    -0.003 A 
ATOM      5  C   UNL     1       0.531   1.018   0.694  1.00  0.00     0.018 A 
ATOM      6  C   UNL     1      -0.724   0.442   0.432  1.00  0.00    -0.007 A 
ATOM      7  C   UNL     1      -1.882   0.966   1.035  1.00  0.00     0.055 A 
ATOM      8  C   UNL     1      -3.146   0.419   0.798  1.00  0.00     0.123 A 
ATOM      9  C   UNL     1      -3.263  -0.670  -0.055  1.00  0.00     0.093 A 
ATOM     10  C   UNL     1      -2.121  -1.199  -0.660  1.00  0.00     0.130 A 
ATOM     11  C   UNL     1      -0.826  -0.666  -0.439  1.00  0.00     0.067 A 
ATOM     12  C   UNL     1       0.369  -1.163  -1.027  1.00  0.00     0.142 A 
ATOM     13  C   UNL     1       1.617  -0.576  -0.755  1.00  0.00     0.110 A 
ATOM     14  C   UNL     1       2.855  -1.102  -1.373  1.00  0.00     0.347 C 
ATOM     15  O   UNL     1       2.797  -2.064  -2.134  1.00  0.00    -0.246 OA
ATOM     16  O   UNL     1       4.031  -0.483  -1.064  1.00  0.00    -0.428 OA
ENDROOT
BRANCH  12  17
ATOM     17  O   UNL     1       0.250  -2.247  -1.876  1.00  0.00    -0.506 OA
ATOM     18  H   UNL     1       1.147  -2.486  -2.210  1.00  0.00     0.293 HD
ENDBRANCH  12  17
BRANCH   8  19
ATOM     19  O   UNL     1      -4.170   1.040   1.458  1.00  0.00    -0.497 OA
ATOM     20  C   UNL     1      -5.477   0.518   1.247  1.00  0.00     0.278 C 
ENDBRANCH   8  19
BRANCH  10  21
ATOM     21  O   UNL     1      -2.334  -2.274  -1.487  1.00  0.00    -0.507 OA
ATOM     22  H   UNL     1      -1.456  -2.535  -1.836  1.00  0.00     0.293 HD
ENDBRANCH  10  21
TORSDOF 3
