REMARK SMILES COc1cc(O)c2c(O)c(C(C)=O)c(C)cc2c1
REMARK SMILES IDX 15 1 14 2 16 3 17 4 18 5 3 6 4 7 5 8 7 9 8 10 10 11 11 12
REMARK SMILES IDX 13 13 12 14 9 15 2 17 1 18 6 19
REMARK H PARENT 9 16 6 20
ROOT
ATOM      1  C   UNL     1       3.102  -0.279   2.320  1.00  0.00     0.045 C 
ATOM      2  C   UNL     1       1.957  -0.131   1.354  1.00  0.00    -0.036 A 
ATOM      3  C   UNL     1       0.749  -0.793   1.626  1.00  0.00     0.013 A 
ATOM      4  C   UNL     1      -0.356  -0.705   0.763  1.00  0.00    -0.007 A 
ATOM      5  C   UNL     1      -1.550  -1.378   1.076  1.00  0.00     0.055 A 
ATOM      6  C   UNL     1      -2.669  -1.318   0.242  1.00  0.00     0.123 A 
ATOM      7  C   UNL     1      -2.604  -0.576  -0.931  1.00  0.00     0.093 A 
ATOM      8  C   UNL     1      -1.420   0.097  -1.252  1.00  0.00     0.130 A 
ATOM      9  C   UNL     1      -0.269   0.057  -0.422  1.00  0.00     0.066 A 
ATOM     10  C   UNL     1       0.961   0.717  -0.696  1.00  0.00     0.138 A 
ATOM     11  C   UNL     1       2.059   0.629   0.177  1.00  0.00     0.063 A 
ENDROOT
BRANCH  11  12
ATOM     12  C   UNL     1       3.334   1.321  -0.153  1.00  0.00     0.163 C 
ATOM     13  O   UNL     1       4.399   0.709  -0.092  1.00  0.00    -0.294 OA
ATOM     14  C   UNL     1       3.283   2.780  -0.525  1.00  0.00     0.093 C 
ENDBRANCH  11  12
BRANCH  10  15
ATOM     15  O   UNL     1       1.107   1.448  -1.853  1.00  0.00    -0.506 OA
ATOM     16  H   UNL     1       0.263   1.373  -2.346  1.00  0.00     0.293 HD
ENDBRANCH  10  15
BRANCH   6  17
ATOM     17  O   UNL     1      -3.750  -2.027   0.689  1.00  0.00    -0.497 OA
ATOM     18  C   UNL     1      -4.916  -2.017  -0.124  1.00  0.00     0.278 C 
ENDBRANCH   6  17
BRANCH   8  19
ATOM     19  O   UNL     1      -1.364   0.828  -2.419  1.00  0.00    -0.507 OA
ATOM     20  H   UNL     1      -2.220   0.749  -2.877  1.00  0.00     0.293 HD
ENDBRANCH   8  19
TORSDOF 4
