REMARK SMILES COc1cc(O)c2c(O)c3c(=O)oc(C)cc3cc2c1
REMARK SMILES IDX 15 1 14 2 16 3 17 4 18 5 19 6 20 7 3 8 4 9 5 10 7 11 8 12
REMARK SMILES IDX 10 13 11 14 12 15 13 16 9 17 2 19 1 20 6 21
REMARK H PARENT 9 18 6 22
ROOT
ATOM      1  C   UNL     1       5.562  -0.400  -0.144  1.00  0.00     0.088 C 
ATOM      2  C   UNL     1       4.112  -0.297   0.204  1.00  0.00     0.105 C 
ATOM      3  C   UNL     1       3.137  -0.151  -0.700  1.00  0.00     0.051 C 
ATOM      4  C   UNL     1       1.758  -0.062  -0.241  1.00  0.00    -0.003 A 
ATOM      5  C   UNL     1       0.713   0.091  -1.159  1.00  0.00     0.018 A 
ATOM      6  C   UNL     1      -0.624   0.179  -0.735  1.00  0.00    -0.007 A 
ATOM      7  C   UNL     1      -1.655   0.332  -1.679  1.00  0.00     0.055 A 
ATOM      8  C   UNL     1      -2.996   0.424  -1.294  1.00  0.00     0.123 A 
ATOM      9  C   UNL     1      -3.318   0.362   0.055  1.00  0.00     0.093 A 
ATOM     10  C   UNL     1      -2.303   0.211   1.001  1.00  0.00     0.130 A 
ATOM     11  C   UNL     1      -0.935   0.115   0.642  1.00  0.00     0.067 A 
ATOM     12  C   UNL     1       0.138  -0.040   1.560  1.00  0.00     0.142 A 
ATOM     13  C   UNL     1       1.471  -0.127   1.121  1.00  0.00     0.110 A 
ATOM     14  C   UNL     1       2.581  -0.288   2.087  1.00  0.00     0.347 C 
ATOM     15  O   UNL     1       2.340  -0.347   3.290  1.00  0.00    -0.246 OA
ATOM     16  O   UNL     1       3.849  -0.366   1.590  1.00  0.00    -0.428 OA
ENDROOT
BRANCH  12  17
ATOM     17  O   UNL     1      -0.185  -0.101   2.903  1.00  0.00    -0.506 OA
ATOM     18  H   UNL     1       0.647  -0.208   3.424  1.00  0.00     0.293 HD
ENDBRANCH  12  17
BRANCH   8  19
ATOM     19  O   UNL     1      -3.879   0.570  -2.328  1.00  0.00    -0.497 OA
ATOM     20  C   UNL     1      -5.256   0.667  -1.985  1.00  0.00     0.278 C 
ENDBRANCH   8  19
BRANCH  10  21
ATOM     21  O   UNL     1      -2.717   0.160   2.310  1.00  0.00    -0.507 OA
ATOM     22  H   UNL     1      -1.908   0.053   2.854  1.00  0.00     0.293 HD
ENDBRANCH  10  21
TORSDOF 3
