REMARK SMILES COc1cc(O)c2c(O)c(C(C)=O)c(C)cc2c1
REMARK SMILES IDX 15 1 14 2 16 3 17 4 18 5 3 6 4 7 5 8 7 9 8 10 10 11 11 12
REMARK SMILES IDX 13 13 12 14 9 15 2 17 1 18 6 19
REMARK H PARENT 9 16 6 20
ROOT
ATOM      1  C   UNL     1      -3.168  -0.144   1.654  1.00  0.00     0.045 C 
ATOM      2  C   UNL     1      -1.915  -0.012   0.835  1.00  0.00    -0.036 A 
ATOM      3  C   UNL     1      -0.700  -0.407   1.425  1.00  0.00     0.013 A 
ATOM      4  C   UNL     1       0.534  -0.272   0.765  1.00  0.00    -0.007 A 
ATOM      5  C   UNL     1       1.724  -0.680   1.393  1.00  0.00     0.055 A 
ATOM      6  C   UNL     1       2.968  -0.546   0.770  1.00  0.00     0.123 A 
ATOM      7  C   UNL     1       3.031   0.006  -0.502  1.00  0.00     0.093 A 
ATOM      8  C   UNL     1       1.856   0.413  -1.136  1.00  0.00     0.130 A 
ATOM      9  C   UNL     1       0.581   0.288  -0.529  1.00  0.00     0.066 A 
ATOM     10  C   UNL     1      -0.647   0.681  -1.122  1.00  0.00     0.138 A 
ATOM     11  C   UNL     1      -1.886   0.493  -0.475  1.00  0.00     0.063 A 
ENDROOT
BRANCH  11  12
ATOM     12  C   UNL     1      -3.114   0.849  -1.237  1.00  0.00     0.163 C 
ATOM     13  O   UNL     1      -3.086   1.858  -1.945  1.00  0.00    -0.294 OA
ATOM     14  C   UNL     1      -4.309  -0.064  -1.208  1.00  0.00     0.093 C 
ENDBRANCH  11  12
BRANCH  10  15
ATOM     15  O   UNL     1      -0.583   1.264  -2.377  1.00  0.00    -0.506 OA
ATOM     16  H   UNL     1      -1.438   1.730  -2.533  1.00  0.00     0.293 HD
ENDBRANCH  10  15
BRANCH   6  17
ATOM     17  O   UNL     1       4.030  -0.988   1.511  1.00  0.00    -0.497 OA
ATOM     18  C   UNL     1       5.318  -0.866   0.919  1.00  0.00     0.278 C 
ENDBRANCH   6  17
BRANCH   8  19
ATOM     19  O   UNL     1       2.013   0.942  -2.394  1.00  0.00    -0.507 OA
ATOM     20  H   UNL     1       1.114   1.178  -2.708  1.00  0.00     0.293 HD
ENDBRANCH   8  19
TORSDOF 4
