REMARK SMILES O=c1ccc2ccc(O)cc2o1
REMARK SMILES IDX 9 1 8 3 6 4 7 5 5 6 11 7 4 8 10 9 12 10 3 11 2 12 1 13
REMARK H PARENT 9 2
ROOT
ATOM      1  O   UNL     1       3.542   0.601   0.278  1.00  0.00    -0.508 OA
ATOM      2  H   UNL     1       3.577   1.549   0.488  1.00  0.00     0.293 HD
ENDROOT
BRANCH   1   3
ATOM      3  C   UNL     1       2.238   0.227   0.142  1.00  0.00     0.119 A 
ATOM      4  C   UNL     1       0.658  -1.546  -0.313  1.00  0.00     0.016 A 
ATOM      5  C   UNL     1       1.977  -1.108  -0.162  1.00  0.00     0.047 A 
ATOM      6  C   UNL     1      -0.396  -0.644  -0.158  1.00  0.00     0.018 A 
ATOM      7  C   UNL     1      -0.107   0.686   0.146  1.00  0.00     0.142 A 
ATOM      8  C   UNL     1      -1.785  -1.047  -0.304  1.00  0.00     0.019 C 
ATOM      9  C   UNL     1       1.202   1.139   0.300  1.00  0.00     0.094 A 
ATOM     10  O   UNL     1      -1.139   1.632   0.312  1.00  0.00    -0.423 OA
ATOM     11  C   UNL     1      -2.754  -0.140  -0.144  1.00  0.00     0.094 C 
ATOM     12  C   UNL     1      -2.472   1.271   0.177  1.00  0.00     0.336 C 
ATOM     13  O   UNL     1      -3.387   2.075   0.316  1.00  0.00    -0.246 OA
ENDBRANCH   1   3
TORSDOF 1
