REMARK SMILES O=c1ccc2ccc(O)cc2o1
REMARK SMILES IDX 9 1 8 3 6 4 7 5 5 6 11 7 4 8 10 9 12 10 3 11 2 12 1 13
REMARK H PARENT 9 2
ROOT
ATOM      1  O   UNL     1       3.488  -0.802  -0.122  1.00  0.00    -0.508 OA
ATOM      2  H   UNL     1       4.102  -0.112   0.179  1.00  0.00     0.293 HD
ENDROOT
BRANCH   1   3
ATOM      3  C   UNL     1       2.211  -0.340  -0.012  1.00  0.00     0.119 A 
ATOM      4  C   UNL     1       0.618   1.381   0.569  1.00  0.00     0.016 A 
ATOM      5  C   UNL     1       1.943   0.941   0.470  1.00  0.00     0.047 A 
ATOM      6  C   UNL     1      -0.430   0.540   0.186  1.00  0.00     0.018 A 
ATOM      7  C   UNL     1      -0.132  -0.736  -0.292  1.00  0.00     0.142 A 
ATOM      8  C   UNL     1      -1.821   0.953   0.270  1.00  0.00     0.019 C 
ATOM      9  C   UNL     1       1.180  -1.188  -0.397  1.00  0.00     0.094 A 
ATOM     10  O   UNL     1      -1.155  -1.618  -0.690  1.00  0.00    -0.423 OA
ATOM     11  C   UNL     1      -2.782   0.105  -0.110  1.00  0.00     0.094 C 
ATOM     12  C   UNL     1      -2.490  -1.247  -0.618  1.00  0.00     0.336 C 
ATOM     13  O   UNL     1      -3.400  -1.995  -0.958  1.00  0.00    -0.246 OA
ENDBRANCH   1   3
TORSDOF 1
