REMARK SMILES O=c1ccc2ccc(O)cc2o1
REMARK SMILES IDX 9 1 8 3 6 4 7 5 5 6 11 7 4 8 10 9 12 10 3 11 2 12 1 13
REMARK H PARENT 9 2
ROOT
ATOM      1  O   UNL     1      -3.577  -0.073  -0.431  1.00  0.00    -0.508 OA
ATOM      2  H   UNL     1      -3.696  -0.806  -1.058  1.00  0.00     0.293 HD
ENDROOT
BRANCH   1   3
ATOM      3  C   UNL     1      -2.247   0.073  -0.171  1.00  0.00     0.119 A 
ATOM      4  C   UNL     1      -0.516   1.274   1.016  1.00  0.00     0.016 A 
ATOM      5  C   UNL     1      -1.868   1.080   0.714  1.00  0.00     0.047 A 
ATOM      6  C   UNL     1       0.452   0.456   0.430  1.00  0.00     0.018 A 
ATOM      7  C   UNL     1       0.045  -0.545  -0.453  1.00  0.00     0.142 A 
ATOM      8  C   UNL     1       1.869   0.615   0.709  1.00  0.00     0.019 C 
ATOM      9  C   UNL     1      -1.298  -0.751  -0.764  1.00  0.00     0.094 A 
ATOM     10  O   UNL     1       0.987  -1.394  -1.069  1.00  0.00    -0.423 OA
ATOM     11  C   UNL     1       2.751  -0.197   0.118  1.00  0.00     0.094 C 
ATOM     12  C   UNL     1       2.345  -1.261  -0.817  1.00  0.00     0.336 C 
ATOM     13  O   UNL     1       3.183  -1.987  -1.340  1.00  0.00    -0.246 OA
ENDBRANCH   1   3
TORSDOF 1
