REMARK SMILES C[C@H]1[C@H](C)CC[C@]2(C(=O)O)CC[C@]3(C)C(=CC[C@@H]4[C@@]5(C)CC[C@H](O)C(C)(C)[C@@H]5CC[C@]43C)[C@H]12
REMARK SMILES IDX 4 1 3 2 5 3 6 4 7 5 11 6 12 7 13 8 15 9 16 10 17 11 18 12
REMARK SMILES IDX 31 13 30 14 29 15 28 16 19 17 21 18 22 19 23 20 25 21 26 22
REMARK SMILES IDX 27 23 20 24 32 25 33 26 2 27 1 28 14 29 8 30 9 31 10 32
REMARK SMILES IDX 24 34
REMARK H PARENT 10 33 24 35
ROOT
ATOM      1  C   UNL     1       6.326   0.043   2.345  1.00  0.00     0.008 C 
ATOM      2  C   UNL     1       5.512  -0.253   1.080  1.00  0.00    -0.011 C 
ATOM      3  C   UNL     1       6.033   0.617  -0.078  1.00  0.00     0.005 C 
ATOM      4  C   UNL     1       4.934   1.271  -0.908  1.00  0.00     0.020 C 
ATOM      5  C   UNL     1       3.788   0.308  -1.298  1.00  0.00     0.075 C 
ATOM      6  C   UNL     1       2.661   1.122  -1.985  1.00  0.00     0.020 C 
ATOM      7  C   UNL     1       1.711   1.791  -0.990  1.00  0.00     0.013 C 
ATOM      8  C   UNL     1       0.914   0.789  -0.102  1.00  0.00    -0.006 C 
ATOM      9  C   UNL     1       1.712  -0.520   0.020  1.00  0.00    -0.063 C 
ATOM     10  C   UNL     1       1.092  -1.714   0.113  1.00  0.00    -0.027 C 
ATOM     11  C   UNL     1      -0.387  -1.945   0.122  1.00  0.00     0.032 C 
ATOM     12  C   UNL     1      -1.245  -0.662   0.157  1.00  0.00     0.006 C 
ATOM     13  C   UNL     1      -0.589   0.499  -0.690  1.00  0.00    -0.020 C 
ATOM     14  C   UNL     1      -1.493   1.764  -0.597  1.00  0.00     0.008 C 
ATOM     15  C   UNL     1      -2.986   1.519  -0.832  1.00  0.00     0.005 C 
ATOM     16  C   UNL     1      -3.532   0.467   0.155  1.00  0.00     0.003 C 
ATOM     17  C   UNL     1      -2.807  -0.915  -0.046  1.00  0.00    -0.025 C 
ATOM     18  C   UNL     1      -3.299  -1.886   1.072  1.00  0.00     0.010 C 
ATOM     19  C   UNL     1      -4.818  -1.983   1.199  1.00  0.00     0.033 C 
ATOM     20  C   UNL     1      -5.472  -0.616   1.381  1.00  0.00     0.120 C 
ATOM     21  C   UNL     1      -5.101   0.416   0.275  1.00  0.00    -0.006 C 
ATOM     22  C   UNL     1      -5.819   0.115  -1.055  1.00  0.00     0.014 C 
ATOM     23  C   UNL     1      -5.636   1.798   0.745  1.00  0.00     0.014 C 
ATOM     24  C   UNL     1      -3.129  -1.576  -1.411  1.00  0.00     0.012 C 
ATOM     25  C   UNL     1      -0.499   0.111  -2.192  1.00  0.00     0.012 C 
ATOM     26  C   UNL     1       3.251  -0.490  -0.055  1.00  0.00     0.036 C 
ATOM     27  C   UNL     1       3.978  -0.105   1.278  1.00  0.00    -0.003 C 
ATOM     28  C   UNL     1       3.482  -0.954   2.460  1.00  0.00     0.008 C 
ATOM     29  C   UNL     1       0.839   1.430   1.316  1.00  0.00     0.017 C 
ENDROOT
BRANCH   5  30
ATOM     30  C   UNL     1       4.374  -0.668  -2.332  1.00  0.00     0.310 C 
ATOM     31  O   UNL     1       4.781  -1.801  -2.135  1.00  0.00    -0.252 OA
BRANCH  30  32
ATOM     32  O   UNL     1       4.499  -0.136  -3.566  1.00  0.00    -0.481 OA
ATOM     33  H   UNL     1       4.910  -0.857  -4.088  1.00  0.00     0.296 HD
ENDBRANCH  30  32
ENDBRANCH   5  30
BRANCH  20  34
ATOM     34  O   UNL     1      -6.884  -0.791   1.486  1.00  0.00    -0.393 OA
ATOM     35  H   UNL     1      -7.188  -1.291   0.710  1.00  0.00     0.210 HD
ENDBRANCH  20  34
TORSDOF 3
