REMARK SMILES O=c1cc(-c2ccc(O)cc2)oc2c([C@@H]3O[C@H](CO)[C@@H](O)[C@H](O)[C@H]3O)c(O)cc(O)c12
REMARK SMILES IDX 4 1 3 2 2 3 1 4 31 5 13 6 12 7 14 8 26 9 28 10 29 11 5 12
REMARK SMILES IDX 6 13 7 14 8 15 11 16 10 17 9 18 15 20 24 21 16 22 22 23
REMARK SMILES IDX 17 24 20 25 25 26 23 28 18 30 19 31 21 33 30 35 27 37
REMARK H PARENT 9 19 25 27 23 29 19 32 21 34 30 36 27 38
ROOT
ATOM      1  C   UNL     1       2.606  -1.188   0.283  1.00  0.00     0.138 C 
ATOM      2  C   UNL     1       3.128  -2.369  -0.073  1.00  0.00     0.100 C 
ATOM      3  C   UNL     1       2.288  -3.313  -0.818  1.00  0.00     0.197 C 
ATOM      4  O   UNL     1       2.715  -4.407  -1.171  1.00  0.00    -0.289 OA
ATOM      5  C   UNL     1       0.913  -2.896  -1.125  1.00  0.00     0.107 A 
ATOM      6  C   UNL     1       0.481  -1.638  -0.696  1.00  0.00     0.152 A 
ATOM      7  O   UNL     1       1.310  -0.793   0.008  1.00  0.00    -0.455 OA
ATOM      8  C   UNL     1      -0.829  -1.195  -0.972  1.00  0.00     0.069 A 
ATOM      9  C   UNL     1      -1.677  -2.061  -1.687  1.00  0.00     0.128 A 
ATOM     10  C   UNL     1      -1.248  -3.320  -2.113  1.00  0.00     0.093 A 
ATOM     11  C   UNL     1       0.048  -3.734  -1.830  1.00  0.00     0.134 A 
ENDROOT
BRANCH   1  12
ATOM     12  C   UNL     1       3.387  -0.196   1.047  1.00  0.00     0.018 A 
ATOM     13  C   UNL     1       2.803   0.460   2.142  1.00  0.00     0.016 A 
ATOM     14  C   UNL     1       3.524   1.409   2.870  1.00  0.00     0.047 A 
ATOM     15  C   UNL     1       4.828   1.714   2.503  1.00  0.00     0.115 A 
ATOM     16  C   UNL     1       4.704   0.134   0.689  1.00  0.00     0.016 A 
ATOM     17  C   UNL     1       5.426   1.085   1.416  1.00  0.00     0.047 A 
BRANCH  15  18
ATOM     18  O   UNL     1       5.494   2.647   3.240  1.00  0.00    -0.508 OA
ATOM     19  H   UNL     1       6.383   2.763   2.867  1.00  0.00     0.293 HD
ENDBRANCH  15  18
ENDBRANCH   1  12
BRANCH   8  20
ATOM     20  C   UNL     1      -1.291   0.182  -0.519  1.00  0.00     0.188 C 
ATOM     21  C   UNL     1      -1.568   1.129  -1.707  1.00  0.00     0.179 C 
ATOM     22  O   UNL     1      -2.448  -0.002   0.318  1.00  0.00    -0.362 OA
ATOM     23  C   UNL     1      -2.182   2.433  -1.193  1.00  0.00     0.177 C 
ATOM     24  C   UNL     1      -2.978   1.228   0.836  1.00  0.00     0.176 C 
ATOM     25  C   UNL     1      -3.398   2.163  -0.305  1.00  0.00     0.177 C 
BRANCH  21  26
ATOM     26  O   UNL     1      -0.358   1.449  -2.411  1.00  0.00    -0.387 OA
ATOM     27  H   UNL     1      -0.612   2.155  -3.040  1.00  0.00     0.211 HD
ENDBRANCH  21  26
BRANCH  23  28
ATOM     28  O   UNL     1      -2.562   3.250  -2.314  1.00  0.00    -0.387 OA
ATOM     29  H   UNL     1      -3.049   4.003  -1.921  1.00  0.00     0.211 HD
ENDBRANCH  23  28
BRANCH  24  30
ATOM     30  C   UNL     1      -4.165   0.853   1.729  1.00  0.00     0.191 C 
BRANCH  30  31
ATOM     31  O   UNL     1      -3.731  -0.041   2.754  1.00  0.00    -0.394 OA
ATOM     32  H   UNL     1      -3.208  -0.728   2.293  1.00  0.00     0.210 HD
ENDBRANCH  30  31
ENDBRANCH  24  30
BRANCH  25  33
ATOM     33  O   UNL     1      -3.879   3.426   0.169  1.00  0.00    -0.388 OA
ATOM     34  H   UNL     1      -4.784   3.298   0.505  1.00  0.00     0.211 HD
ENDBRANCH  25  33
ENDBRANCH   8  20
BRANCH  11  35
ATOM     35  O   UNL     1       0.405  -4.978  -2.277  1.00  0.00    -0.507 OA
ATOM     36  H   UNL     1       1.340  -5.141  -2.014  1.00  0.00     0.293 HD
ENDBRANCH  11  35
BRANCH   9  37
ATOM     37  O   UNL     1      -2.954  -1.663  -1.979  1.00  0.00    -0.507 OA
ATOM     38  H   UNL     1      -3.416  -2.391  -2.428  1.00  0.00     0.293 HD
ENDBRANCH   9  37
TORSDOF 10
