REMARK SMILES O=c1cc(-c2ccc(O)cc2)oc2c([C@@H]3O[C@H](CO)[C@@H](O)[C@H](O)[C@H]3O)c(O)cc(O)c12
REMARK SMILES IDX 4 1 3 2 2 3 1 4 31 5 13 6 12 7 14 8 26 9 28 10 29 11 5 12
REMARK SMILES IDX 6 13 7 14 8 15 11 16 10 17 9 18 15 20 24 21 16 22 22 23
REMARK SMILES IDX 17 24 20 25 25 26 23 28 18 30 19 31 21 33 30 35 27 37
REMARK H PARENT 9 19 25 27 23 29 19 32 21 34 30 36 27 38
ROOT
ATOM      1  C   UNL     1       1.830  -0.691   1.326  1.00  0.00     0.138 C 
ATOM      2  C   UNL     1       2.471  -1.730   1.877  1.00  0.00     0.100 C 
ATOM      3  C   UNL     1       1.955  -3.083   1.635  1.00  0.00     0.197 C 
ATOM      4  O   UNL     1       2.490  -4.071   2.126  1.00  0.00    -0.289 OA
ATOM      5  C   UNL     1       0.768  -3.210   0.779  1.00  0.00     0.107 A 
ATOM      6  C   UNL     1       0.197  -2.051   0.248  1.00  0.00     0.152 A 
ATOM      7  O   UNL     1       0.693  -0.803   0.546  1.00  0.00    -0.455 OA
ATOM      8  C   UNL     1      -0.932  -2.126  -0.595  1.00  0.00     0.069 A 
ATOM      9  C   UNL     1      -1.494  -3.392  -0.822  1.00  0.00     0.128 A 
ATOM     10  C   UNL     1      -0.932  -4.553  -0.291  1.00  0.00     0.093 A 
ATOM     11  C   UNL     1       0.206  -4.458   0.503  1.00  0.00     0.134 A 
ENDROOT
BRANCH   1  12
ATOM     12  C   UNL     1       2.278   0.699   1.530  1.00  0.00     0.018 A 
ATOM     13  C   UNL     1       3.630   1.057   1.420  1.00  0.00     0.016 A 
ATOM     14  C   UNL     1       4.031   2.384   1.595  1.00  0.00     0.047 A 
ATOM     15  C   UNL     1       3.083   3.360   1.873  1.00  0.00     0.115 A 
ATOM     16  C   UNL     1       1.337   1.705   1.806  1.00  0.00     0.016 A 
ATOM     17  C   UNL     1       1.736   3.034   1.980  1.00  0.00     0.047 A 
BRANCH  15  18
ATOM     18  O   UNL     1       3.519   4.641   2.033  1.00  0.00    -0.508 OA
ATOM     19  H   UNL     1       2.752   5.217   2.185  1.00  0.00     0.293 HD
ENDBRANCH  15  18
ENDBRANCH   1  12
BRANCH   8  20
ATOM     20  C   UNL     1      -1.559  -0.884  -1.220  1.00  0.00     0.188 C 
ATOM     21  C   UNL     1      -2.455  -0.154  -0.193  1.00  0.00     0.179 C 
ATOM     22  O   UNL     1      -0.497  -0.054  -1.715  1.00  0.00    -0.362 OA
ATOM     23  C   UNL     1      -2.883   1.212  -0.735  1.00  0.00     0.177 C 
ATOM     24  C   UNL     1      -0.943   1.175  -2.294  1.00  0.00     0.176 C 
ATOM     25  C   UNL     1      -1.687   2.010  -1.244  1.00  0.00     0.177 C 
BRANCH  21  26
ATOM     26  O   UNL     1      -3.665  -0.869   0.118  1.00  0.00    -0.387 OA
ATOM     27  H   UNL     1      -3.478  -1.825   0.048  1.00  0.00     0.211 HD
ENDBRANCH  21  26
BRANCH  23  28
ATOM     28  O   UNL     1      -3.542   1.969   0.295  1.00  0.00    -0.387 OA
ATOM     29  H   UNL     1      -4.201   1.351   0.675  1.00  0.00     0.211 HD
ENDBRANCH  23  28
BRANCH  24  30
ATOM     30  C   UNL     1       0.272   1.935  -2.845  1.00  0.00     0.191 C 
BRANCH  30  31
ATOM     31  O   UNL     1      -0.112   3.076  -3.606  1.00  0.00    -0.394 OA
ATOM     32  H   UNL     1      -0.821   3.527  -3.100  1.00  0.00     0.210 HD
ENDBRANCH  30  31
ENDBRANCH  24  30
BRANCH  25  33
ATOM     33  O   UNL     1      -2.140   3.256  -1.786  1.00  0.00    -0.388 OA
ATOM     34  H   UNL     1      -2.795   3.589  -1.136  1.00  0.00     0.211 HD
ENDBRANCH  25  33
ENDBRANCH   8  20
BRANCH  11  35
ATOM     35  O   UNL     1       0.709  -5.632   0.995  1.00  0.00    -0.507 OA
ATOM     36  H   UNL     1       1.504  -5.424   1.537  1.00  0.00     0.293 HD
ENDBRANCH  11  35
BRANCH   9  37
ATOM     37  O   UNL     1      -2.649  -3.475  -1.549  1.00  0.00    -0.507 OA
ATOM     38  H   UNL     1      -2.834  -4.412  -1.744  1.00  0.00     0.293 HD
ENDBRANCH   9  37
TORSDOF 10
