REMARK SMILES O=c1cc(-c2ccc(O)cc2)oc2c([C@@H]3O[C@H](CO)[C@@H](O)[C@H](O)[C@H]3O)c(O)cc(O)c12
REMARK SMILES IDX 4 1 3 2 2 3 1 4 31 5 13 6 12 7 14 8 26 9 28 10 29 11 5 12
REMARK SMILES IDX 6 13 7 14 8 15 11 16 10 17 9 18 15 20 24 21 16 22 22 23
REMARK SMILES IDX 17 24 20 25 25 26 23 28 18 30 19 31 21 33 30 35 27 37
REMARK H PARENT 9 19 25 27 23 29 19 32 21 34 30 36 27 38
ROOT
ATOM      1  C   UNL     1       2.699  -0.832   0.708  1.00  0.00     0.138 C 
ATOM      2  C   UNL     1       3.176  -1.579   1.712  1.00  0.00     0.100 C 
ATOM      3  C   UNL     1       2.238  -2.083   2.722  1.00  0.00     0.197 C 
ATOM      4  O   UNL     1       2.623  -2.754   3.674  1.00  0.00    -0.289 OA
ATOM      5  C   UNL     1       0.817  -1.758   2.544  1.00  0.00     0.107 A 
ATOM      6  C   UNL     1       0.441  -0.970   1.453  1.00  0.00     0.152 A 
ATOM      7  O   UNL     1       1.365  -0.500   0.550  1.00  0.00    -0.455 OA
ATOM      8  C   UNL     1      -0.912  -0.637   1.240  1.00  0.00     0.069 A 
ATOM      9  C   UNL     1      -1.864  -1.141   2.146  1.00  0.00     0.128 A 
ATOM     10  C   UNL     1      -1.490  -1.925   3.239  1.00  0.00     0.093 A 
ATOM     11  C   UNL     1      -0.148  -2.229   3.437  1.00  0.00     0.134 A 
ENDROOT
BRANCH   1  12
ATOM     12  C   UNL     1       3.574  -0.309  -0.358  1.00  0.00     0.018 A 
ATOM     13  C   UNL     1       3.153  -0.368  -1.696  1.00  0.00     0.016 A 
ATOM     14  C   UNL     1       3.960   0.132  -2.720  1.00  0.00     0.047 A 
ATOM     15  C   UNL     1       5.190   0.699  -2.413  1.00  0.00     0.115 A 
ATOM     16  C   UNL     1       4.818   0.276  -0.070  1.00  0.00     0.016 A 
ATOM     17  C   UNL     1       5.627   0.777  -1.095  1.00  0.00     0.047 A 
BRANCH  15  18
ATOM     18  O   UNL     1       5.945   1.175  -3.442  1.00  0.00    -0.508 OA
ATOM     19  H   UNL     1       6.770   1.539  -3.083  1.00  0.00     0.293 HD
ENDBRANCH  15  18
ENDBRANCH   1  12
BRANCH   8  20
ATOM     20  C   UNL     1      -1.316   0.220   0.048  1.00  0.00     0.188 C 
ATOM     21  C   UNL     1      -2.058  -0.611  -1.018  1.00  0.00     0.179 C 
ATOM     22  O   UNL     1      -2.112   1.305   0.545  1.00  0.00    -0.362 OA
ATOM     23  C   UNL     1      -2.609   0.311  -2.107  1.00  0.00     0.177 C 
ATOM     24  C   UNL     1      -2.576   2.209  -0.468  1.00  0.00     0.176 C 
ATOM     25  C   UNL     1      -3.412   1.474  -1.524  1.00  0.00     0.177 C 
BRANCH  21  26
ATOM     26  O   UNL     1      -1.179  -1.564  -1.638  1.00  0.00    -0.387 OA
ATOM     27  H   UNL     1      -1.641  -1.881  -2.439  1.00  0.00     0.211 HD
ENDBRANCH  21  26
BRANCH  23  28
ATOM     28  O   UNL     1      -3.435  -0.446  -3.015  1.00  0.00    -0.387 OA
ATOM     29  H   UNL     1      -4.194  -0.794  -2.510  1.00  0.00     0.211 HD
ENDBRANCH  23  28
BRANCH  24  30
ATOM     30  C   UNL     1      -3.407   3.273   0.258  1.00  0.00     0.191 C 
BRANCH  30  31
ATOM     31  O   UNL     1      -4.399   2.642   1.074  1.00  0.00    -0.394 OA
ATOM     32  H   UNL     1      -3.915   1.944   1.561  1.00  0.00     0.210 HD
ENDBRANCH  30  31
ENDBRANCH  24  30
BRANCH  25  33
ATOM     33  O   UNL     1      -3.770   2.361  -2.589  1.00  0.00    -0.388 OA
ATOM     34  H   UNL     1      -4.086   1.800  -3.324  1.00  0.00     0.211 HD
ENDBRANCH  25  33
ENDBRANCH   8  20
BRANCH  11  35
ATOM     35  O   UNL     1       0.151  -3.003   4.525  1.00  0.00    -0.507 OA
ATOM     36  H   UNL     1       1.126  -3.142   4.544  1.00  0.00     0.293 HD
ENDBRANCH  11  35
BRANCH   9  37
ATOM     37  O   UNL     1      -3.192  -0.870   1.947  1.00  0.00    -0.507 OA
ATOM     38  H   UNL     1      -3.699  -1.215   2.703  1.00  0.00     0.293 HD
ENDBRANCH   9  37
TORSDOF 10
