REMARK SMILES C=Cc1ccc(OC)c(OC)c1
REMARK SMILES IDX 6 1 9 2 12 3 3 4 4 5 5 6 7 7 8 8 10 9 11 10 2 11 1 12
REMARK H PARENT
ROOT
ATOM      1  C   UNL     1      -1.227  -0.678  -0.205  1.00  0.00     0.160 A 
ATOM      2  C   UNL     1      -0.666   0.614  -0.224  1.00  0.00     0.161 A 
ATOM      3  C   UNL     1       0.725   0.768  -0.145  1.00  0.00     0.058 A 
ATOM      4  C   UNL     1       1.568  -0.348  -0.036  1.00  0.00    -0.022 A 
ATOM      5  C   UNL     1       1.000  -1.625  -0.036  1.00  0.00     0.012 A 
ATOM      6  C   UNL     1      -0.386  -1.791  -0.114  1.00  0.00     0.051 A 
ENDROOT
BRANCH   1   7
ATOM      7  O   UNL     1      -2.596  -0.744  -0.286  1.00  0.00    -0.493 OA
ATOM      8  C   UNL     1      -3.197  -2.031  -0.255  1.00  0.00     0.278 C 
ENDBRANCH   1   7
BRANCH   2   9
ATOM      9  O   UNL     1      -1.557   1.655  -0.327  1.00  0.00    -0.493 OA
ATOM     10  C   UNL     1      -1.033   2.975  -0.332  1.00  0.00     0.278 C 
ENDBRANCH   2   9
BRANCH   4  11
ATOM     11  C   UNL     1       3.031  -0.224   0.020  1.00  0.00     0.000 C 
ATOM     12  C   UNL     1       3.684   0.750   0.667  1.00  0.00     0.009 C 
ENDBRANCH   4  11
TORSDOF 3
