REMARK SMILES COc1cc(-c2coc3cc(O)ccc3c2=O)ccc1O
REMARK SMILES IDX 6 1 7 2 8 3 9 4 15 5 16 6 17 7 14 8 13 9 11 10 10 11 5 12
REMARK SMILES IDX 3 13 20 14 4 15 19 16 18 17 2 18 1 19 21 20 12 22
REMARK H PARENT 21 21 12 23
ROOT
ATOM      1  C   UNL     1       0.223   0.197  -0.698  1.00  0.00     0.065 C 
ATOM      2  C   UNL     1       1.003  -0.134  -1.740  1.00  0.00     0.208 C 
ATOM      3  O   UNL     1       2.362  -0.337  -1.726  1.00  0.00    -0.463 OA
ATOM      4  C   UNL     1       3.015  -0.189  -0.529  1.00  0.00     0.141 A 
ATOM      5  C   UNL     1       2.355   0.139   0.653  1.00  0.00     0.066 A 
ATOM      6  C   UNL     1       0.895   0.339   0.627  1.00  0.00     0.200 C 
ATOM      7  O   UNL     1       0.284   0.604   1.656  1.00  0.00    -0.288 OA
ATOM      8  C   UNL     1       3.073   0.275   1.846  1.00  0.00     0.020 A 
ATOM      9  C   UNL     1       4.455   0.079   1.845  1.00  0.00     0.047 A 
ATOM     10  C   UNL     1       5.105  -0.249   0.658  1.00  0.00     0.119 A 
ATOM     11  C   UNL     1       4.398  -0.386  -0.533  1.00  0.00     0.094 A 
ENDROOT
BRANCH   1  12
ATOM     12  C   UNL     1      -1.234   0.372  -0.871  1.00  0.00    -0.007 A 
ATOM     13  C   UNL     1      -3.513  -0.082  -0.138  1.00  0.00     0.161 A 
ATOM     14  C   UNL     1      -3.986   0.691  -1.203  1.00  0.00     0.157 A 
ATOM     15  C   UNL     1      -2.135  -0.242   0.018  1.00  0.00     0.059 A 
ATOM     16  C   UNL     1      -3.119   1.313  -2.090  1.00  0.00     0.051 A 
ATOM     17  C   UNL     1      -1.743   1.157  -1.921  1.00  0.00     0.013 A 
BRANCH  13  18
ATOM     18  O   UNL     1      -4.487  -0.624   0.662  1.00  0.00    -0.493 OA
ATOM     19  C   UNL     1      -4.041  -1.271   1.849  1.00  0.00     0.278 C 
ENDBRANCH  13  18
BRANCH  14  20
ATOM     20  O   UNL     1      -5.331   0.859  -1.388  1.00  0.00    -0.504 OA
ATOM     21  H   UNL     1      -5.748   0.360  -0.660  1.00  0.00     0.293 HD
ENDBRANCH  14  20
ENDBRANCH   1  12
BRANCH  10  22
ATOM     22  O   UNL     1       6.455  -0.431   0.708  1.00  0.00    -0.508 OA
ATOM     23  H   UNL     1       6.780  -0.650  -0.182  1.00  0.00     0.293 HD
ENDBRANCH  10  22
TORSDOF 4
