REMARK SMILES C[C@H](C[C@H](O)[C@H]1OC1(C)C)C1=C2C[C@H](O)[C@H]3[C@@]4(C)CCC(=O)C(C)(C)[C@@H]4CC[C@]3(C)[C@@]2(C)CC1=O
REMARK SMILES IDX 1 1 2 2 3 3 4 4 6 5 8 6 7 7 9 8 10 9 5 10 11 12 12 13 34 14
REMARK SMILES IDX 13 15 31 16 33 17 35 18 14 19 29 20 16 21 28 22 17 23 27 24
REMARK SMILES IDX 19 25 26 26 20 27 23 28 21 29 22 30 32 31 30 32 18 33 24 34
REMARK SMILES IDX 25 35 15 36
REMARK H PARENT 5 11 15 37
ROOT
ATOM      1  C   UNL     1       3.374   1.801  -0.858  1.00  0.00     0.013 C 
ATOM      2  C   UNL     1       3.297   0.281  -0.670  1.00  0.00     0.022 C 
ENDROOT
BRANCH   2   3
ATOM      3  C   UNL     1       4.513  -0.449  -1.294  1.00  0.00     0.042 C 
BRANCH   3   4
ATOM      4  C   UNL     1       5.662  -0.734  -0.311  1.00  0.00     0.147 C 
BRANCH   4   5
ATOM      5  C   UNL     1       6.315   0.517   0.203  1.00  0.00     0.179 C 
ATOM      6  C   UNL     1       7.223   0.587   1.426  1.00  0.00     0.092 C 
ATOM      7  O   UNL     1       5.851   1.017   1.464  1.00  0.00    -0.364 OA
ATOM      8  C   UNL     1       8.206   1.714   1.520  1.00  0.00     0.045 C 
ATOM      9  C   UNL     1       7.508  -0.618   2.267  1.00  0.00     0.045 C 
ENDBRANCH   4   5
BRANCH   4  10
ATOM     10  O   UNL     1       5.181  -1.569   0.740  1.00  0.00    -0.390 OA
ATOM     11  H   UNL     1       4.848  -2.386   0.334  1.00  0.00     0.211 HD
ENDBRANCH   4  10
ENDBRANCH   3   4
ENDBRANCH   2   3
BRANCH   2  12
ATOM     12  C   UNL     1       2.001  -0.227  -1.237  1.00  0.00    -0.002 C 
ATOM     13  C   UNL     1       0.915  -0.735  -0.633  1.00  0.00    -0.054 C 
ATOM     14  C   UNL     1       1.688  -0.225  -2.682  1.00  0.00     0.160 C 
ATOM     15  C   UNL     1       0.678  -0.908   0.836  1.00  0.00     0.064 C 
ATOM     16  C   UNL     1      -0.228  -1.115  -1.562  1.00  0.00     0.002 C 
ATOM     17  C   UNL     1       0.317  -0.764  -2.967  1.00  0.00     0.092 C 
ATOM     18  O   UNL     1       2.465   0.163  -3.542  1.00  0.00    -0.295 OA
ATOM     19  C   UNL     1      -0.626  -0.235   1.303  1.00  0.00     0.122 C 
ATOM     20  C   UNL     1      -1.528  -0.282  -1.133  1.00  0.00    -0.017 C 
ATOM     21  C   UNL     1      -1.852  -0.578   0.392  1.00  0.00     0.031 C 
ATOM     22  C   UNL     1      -2.728  -0.665  -2.057  1.00  0.00     0.008 C 
ATOM     23  C   UNL     1      -3.271  -0.049   0.923  1.00  0.00    -0.023 C 
ATOM     24  C   UNL     1      -4.084  -0.815  -1.365  1.00  0.00     0.006 C 
ATOM     25  C   UNL     1      -3.185   1.260   1.755  1.00  0.00     0.015 C 
ATOM     26  C   UNL     1      -4.257   0.230  -0.265  1.00  0.00     0.008 C 
ATOM     27  C   UNL     1      -4.488   2.063   1.844  1.00  0.00     0.077 C 
ATOM     28  C   UNL     1      -5.736   0.521   0.155  1.00  0.00     0.027 C 
ATOM     29  C   UNL     1      -5.731   1.268   1.497  1.00  0.00     0.138 C 
ATOM     30  O   UNL     1      -6.721   1.305   2.229  1.00  0.00    -0.299 OA
ATOM     31  C   UNL     1      -0.400  -2.657  -1.504  1.00  0.00     0.017 C 
ATOM     32  C   UNL     1      -1.251   1.250  -1.313  1.00  0.00     0.013 C 
ATOM     33  C   UNL     1      -3.819  -1.164   1.869  1.00  0.00     0.012 C 
ATOM     34  C   UNL     1      -6.630  -0.730   0.244  1.00  0.00     0.020 C 
ATOM     35  C   UNL     1      -6.388   1.477  -0.870  1.00  0.00     0.020 C 
BRANCH  19  36
ATOM     36  O   UNL     1      -0.871  -0.648   2.645  1.00  0.00    -0.392 OA
ATOM     37  H   UNL     1      -0.112  -0.368   3.187  1.00  0.00     0.210 HD
ENDBRANCH  19  36
ENDBRANCH   2  12
TORSDOF 6
