REMARK SMILES CC(=O)O[C@@H](C[C@@H](C)C1=C2C[C@H](O)[C@H]3[C@@]4(C)CCC(=O)C(C)(C)[C@@H]4CC[C@]3(C)[C@@]2(C)CC1)[C@H]1OC1(C)C
REMARK SMILES IDX 6 1 7 2 8 3 9 4 10 5 32 6 11 7 29 8 31 9 12 10 27 11 14 12
REMARK SMILES IDX 26 13 15 14 25 15 17 16 24 17 18 18 21 19 19 20 20 21 30 22
REMARK SMILES IDX 28 23 16 24 22 25 23 26 13 27 5 29 33 30 35 31 34 32 36 33
REMARK SMILES IDX 37 34 4 35 2 36 3 37 1 38
REMARK H PARENT 13 28
ROOT
ATOM      1  C   UNL     1      -3.294  -1.248  -2.335  1.00  0.00     0.056 C 
ENDROOT
BRANCH   1   2
ATOM      2  C   UNL     1      -2.865  -2.574  -1.673  1.00  0.00     0.015 C 
ATOM      3  C   UNL     1      -2.431  -3.586  -2.739  1.00  0.00     0.012 C 
BRANCH   2   4
ATOM      4  C   UNL     1      -1.818  -2.451  -0.592  1.00  0.00    -0.067 C 
ATOM      5  C   UNL     1      -0.552  -1.998  -0.638  1.00  0.00    -0.062 C 
ATOM      6  C   UNL     1      -2.133  -3.013   0.768  1.00  0.00     0.032 C 
ATOM      7  C   UNL     1       0.238  -1.471  -1.791  1.00  0.00     0.063 C 
ATOM      8  C   UNL     1       0.165  -2.138   0.696  1.00  0.00    -0.005 C 
ATOM      9  C   UNL     1      -1.000  -2.499   1.652  1.00  0.00     0.016 C 
ATOM     10  C   UNL     1       1.101  -0.240  -1.454  1.00  0.00     0.122 C 
ATOM     11  C   UNL     1       0.912  -0.771   1.069  1.00  0.00    -0.018 C 
ATOM     12  C   UNL     1       1.887  -0.372  -0.112  1.00  0.00     0.031 C 
ATOM     13  C   UNL     1       1.694  -0.943   2.410  1.00  0.00     0.008 C 
ATOM     14  C   UNL     1       2.932   0.820   0.195  1.00  0.00    -0.023 C 
ATOM     15  C   UNL     1       3.038  -0.213   2.509  1.00  0.00     0.006 C 
ATOM     16  C   UNL     1       2.575   2.175  -0.468  1.00  0.00     0.015 C 
ATOM     17  C   UNL     1       3.008   1.107   1.738  1.00  0.00     0.008 C 
ATOM     18  C   UNL     1       3.557   3.297  -0.137  1.00  0.00     0.077 C 
ATOM     19  C   UNL     1       4.023   2.200   2.211  1.00  0.00     0.027 C 
ATOM     20  C   UNL     1       3.842   3.459   1.341  1.00  0.00     0.138 C 
ATOM     21  O   UNL     1       4.035   4.591   1.794  1.00  0.00    -0.299 OA
ATOM     22  C   UNL     1       1.095  -3.378   0.585  1.00  0.00     0.017 C 
ATOM     23  C   UNL     1      -0.155   0.363   1.255  1.00  0.00     0.013 C 
ATOM     24  C   UNL     1       4.292   0.336  -0.391  1.00  0.00     0.012 C 
ATOM     25  C   UNL     1       3.682   2.606   3.672  1.00  0.00     0.020 C 
ATOM     26  C   UNL     1       5.500   1.783   2.196  1.00  0.00     0.020 C 
BRANCH  10  27
ATOM     27  O   UNL     1       1.990  -0.036  -2.554  1.00  0.00    -0.392 OA
ATOM     28  H   UNL     1       2.526  -0.841  -2.660  1.00  0.00     0.210 HD
ENDBRANCH  10  27
ENDBRANCH   2   4
ENDBRANCH   1   2
BRANCH   1  29
ATOM     29  C   UNL     1      -3.775  -0.163  -1.356  1.00  0.00     0.209 C 
BRANCH  29  30
ATOM     30  C   UNL     1      -4.279   1.025  -2.131  1.00  0.00     0.191 C 
ATOM     31  C   UNL     1      -3.410   2.196  -2.565  1.00  0.00     0.093 C 
ATOM     32  O   UNL     1      -4.266   2.269  -1.414  1.00  0.00    -0.363 OA
ATOM     33  C   UNL     1      -3.869   3.037  -3.715  1.00  0.00     0.045 C 
ATOM     34  C   UNL     1      -1.951   2.260  -2.236  1.00  0.00     0.045 C 
ENDBRANCH  29  30
BRANCH  29  35
ATOM     35  O   UNL     1      -4.885  -0.688  -0.604  1.00  0.00    -0.460 OA
BRANCH  35  36
ATOM     36  C   UNL     1      -4.891  -0.417   0.729  1.00  0.00     0.302 C 
ATOM     37  O   UNL     1      -4.011   0.151   1.359  1.00  0.00    -0.253 OA
ATOM     38  C   UNL     1      -6.147  -0.957   1.345  1.00  0.00     0.139 C 
ENDBRANCH  35  36
ENDBRANCH  29  35
ENDBRANCH   1  29
TORSDOF 7
