REMARK SMILES COc1cc(-c2cc(=O)c3c(O)c(OC)c(OC)cc3o2)c(O)cc1O
REMARK SMILES IDX 6 1 7 2 8 3 9 4 10 5 11 6 13 7 16 8 19 9 20 10 21 11 5 12
REMARK SMILES IDX 3 13 25 14 4 15 24 16 22 17 2 18 1 19 26 20 23 22 12 24
REMARK SMILES IDX 17 26 18 27 14 28 15 29
REMARK H PARENT 26 21 23 23 12 25
ROOT
ATOM      1  C   UNL     1       0.989  -0.802  -0.704  1.00  0.00     0.142 C 
ATOM      2  C   UNL     1       0.694  -1.074  -1.983  1.00  0.00     0.100 C 
ATOM      3  C   UNL     1      -0.635  -0.721  -2.497  1.00  0.00     0.197 C 
ATOM      4  O   UNL     1      -0.954  -0.936  -3.661  1.00  0.00    -0.289 OA
ATOM      5  C   UNL     1      -1.572  -0.093  -1.556  1.00  0.00     0.111 A 
ATOM      6  C   UNL     1      -2.867   0.266  -1.939  1.00  0.00     0.176 A 
ATOM      7  C   UNL     1      -3.721   0.858  -0.999  1.00  0.00     0.204 A 
ATOM      8  C   UNL     1      -3.284   1.115   0.314  1.00  0.00     0.168 A 
ATOM      9  C   UNL     1      -1.987   0.747   0.680  1.00  0.00     0.098 A 
ATOM     10  C   UNL     1      -1.137   0.146  -0.255  1.00  0.00     0.146 A 
ATOM     11  O   UNL     1       0.125  -0.178   0.182  1.00  0.00    -0.455 OA
ENDROOT
BRANCH   1  12
ATOM     12  C   UNL     1       2.313  -1.118  -0.131  1.00  0.00     0.063 A 
ATOM     13  C   UNL     1       4.272  -0.345   1.097  1.00  0.00     0.161 A 
ATOM     14  C   UNL     1       4.812  -1.631   0.996  1.00  0.00     0.161 A 
ATOM     15  C   UNL     1       3.020  -0.095   0.533  1.00  0.00     0.066 A 
ATOM     16  C   UNL     1       4.136  -2.660   0.354  1.00  0.00     0.097 A 
ATOM     17  C   UNL     1       2.887  -2.400  -0.205  1.00  0.00     0.130 A 
BRANCH  13  18
ATOM     18  O   UNL     1       5.058   0.561   1.761  1.00  0.00    -0.493 OA
ATOM     19  C   UNL     1       4.550   1.885   1.876  1.00  0.00     0.278 C 
ENDBRANCH  13  18
BRANCH  14  20
ATOM     20  O   UNL     1       6.038  -1.908   1.538  1.00  0.00    -0.504 OA
ATOM     21  H   UNL     1       6.337  -1.066   1.935  1.00  0.00     0.293 HD
ENDBRANCH  14  20
BRANCH  17  22
ATOM     22  O   UNL     1       2.204  -3.413  -0.823  1.00  0.00    -0.507 OA
ATOM     23  H   UNL     1       2.718  -4.235  -0.745  1.00  0.00     0.293 HD
ENDBRANCH  17  22
ENDBRANCH   1  12
BRANCH   6  24
ATOM     24  O   UNL     1      -3.335   0.057  -3.212  1.00  0.00    -0.504 OA
ATOM     25  H   UNL     1      -2.613  -0.339  -3.750  1.00  0.00     0.293 HD
ENDBRANCH   6  24
BRANCH   8  26
ATOM     26  O   UNL     1      -4.195   1.707   1.149  1.00  0.00    -0.493 OA
ATOM     27  C   UNL     1      -3.756   2.072   2.450  1.00  0.00     0.278 C 
ENDBRANCH   8  26
BRANCH   7  28
ATOM     28  O   UNL     1      -4.978   1.269  -1.378  1.00  0.00    -0.490 OA
ATOM     29  C   UNL     1      -5.896   0.181  -1.287  1.00  0.00     0.278 C 
ENDBRANCH   7  28
TORSDOF 7
