REMARK SMILES COc1c(O)cc2c(c1O)C(=O)c1c(cc(C)c(O)c1OC)C2=O
REMARK SMILES IDX 17 1 16 2 15 3 14 4 13 5 20 6 18 7 11 8 12 9 8 10 9 11 3 12
REMARK SMILES IDX 4 13 6 14 7 15 23 16 24 17 19 18 21 20 22 21 10 22 5 24 2 26
REMARK SMILES IDX 1 27
REMARK H PARENT 19 19 10 23 5 25
ROOT
ATOM      1  C   UNL     1      -4.711  -2.569   0.354  1.00  0.00     0.048 C 
ATOM      2  C   UNL     1      -3.490  -1.697   0.348  1.00  0.00    -0.005 A 
ATOM      3  C   UNL     1      -2.261  -2.193  -0.100  1.00  0.00     0.020 A 
ATOM      4  C   UNL     1      -1.123  -1.367  -0.143  1.00  0.00     0.038 A 
ATOM      5  C   UNL     1      -1.188  -0.037   0.278  1.00  0.00     0.080 A 
ATOM      6  C   UNL     1      -2.412   0.454   0.755  1.00  0.00     0.172 A 
ATOM      7  C   UNL     1      -3.552  -0.364   0.751  1.00  0.00     0.161 A 
ATOM      8  C   UNL     1       0.028   0.809   0.195  1.00  0.00     0.202 C 
ATOM      9  O   UNL     1       0.032   1.975   0.579  1.00  0.00    -0.288 OA
ATOM     10  C   UNL     1       1.290   0.259  -0.354  1.00  0.00     0.080 A 
ATOM     11  C   UNL     1       2.447   1.069  -0.467  1.00  0.00     0.173 A 
ATOM     12  C   UNL     1       3.634   0.533  -0.983  1.00  0.00     0.203 A 
ATOM     13  C   UNL     1       3.638  -0.813  -1.375  1.00  0.00     0.162 A 
ATOM     14  C   UNL     1       2.513  -1.619  -1.270  1.00  0.00     0.063 A 
ATOM     15  C   UNL     1       1.333  -1.076  -0.758  1.00  0.00     0.041 A 
ATOM     16  C   UNL     1       0.141  -1.935  -0.651  1.00  0.00     0.194 C 
ATOM     17  O   UNL     1       0.196  -3.113  -0.983  1.00  0.00    -0.289 OA
ENDROOT
BRANCH   7  18
ATOM     18  O   UNL     1      -4.759   0.155   1.138  1.00  0.00    -0.504 OA
ATOM     19  H   UNL     1      -4.628   1.120   1.215  1.00  0.00     0.293 HD
ENDBRANCH   7  18
BRANCH   6  20
ATOM     20  O   UNL     1      -2.589   1.751   1.171  1.00  0.00    -0.492 OA
ATOM     21  C   UNL     1      -2.287   1.873   2.566  1.00  0.00     0.278 C 
ENDBRANCH   6  20
BRANCH  11  22
ATOM     22  O   UNL     1       2.417   2.383  -0.069  1.00  0.00    -0.504 OA
ATOM     23  H   UNL     1       1.517   2.596   0.270  1.00  0.00     0.293 HD
ENDBRANCH  11  22
BRANCH  13  24
ATOM     24  O   UNL     1       4.779  -1.377  -1.882  1.00  0.00    -0.504 OA
ATOM     25  H   UNL     1       5.445  -0.661  -1.875  1.00  0.00     0.293 HD
ENDBRANCH  13  24
BRANCH  12  26
ATOM     26  O   UNL     1       4.848   1.145  -1.171  1.00  0.00    -0.490 OA
ATOM     27  C   UNL     1       4.968   2.526  -0.857  1.00  0.00     0.278 C 
ENDBRANCH  12  26
TORSDOF 5
