REMARK SMILES CC#CC#CCc1ccccc1
REMARK SMILES IDX 3 1 4 2 2 3 1 4 5 5 6 6 7 7 8 8 12 9 9 10 11 11 10 12
REMARK H PARENT
ROOT
ATOM      1  C   UNL     1       0.501   2.929  -1.280  1.00  0.00    -0.016 C 
ATOM      2  C   UNL     1       0.778   1.422  -1.127  1.00  0.00    -0.015 C 
ENDROOT
BRANCH   1   3
ATOM      3  C   UNL     1       0.285   4.104  -1.399  1.00  0.00    -0.093 C 
ATOM      4  C   UNL     1       0.021   5.535  -1.542  1.00  0.00     0.108 C 
ENDBRANCH   1   3
BRANCH   2   5
ATOM      5  C   UNL     1       0.993   0.247  -1.008  1.00  0.00    -0.084 C 
ATOM      6  C   UNL     1       1.260  -1.190  -0.865  1.00  0.00     0.126 C 
BRANCH   6   7
ATOM      7  C   UNL     1       0.350  -1.841   0.148  1.00  0.00    -0.036 A 
ATOM      8  C   UNL     1       0.716  -1.899   1.501  1.00  0.00     0.005 A 
ATOM      9  C   UNL     1      -0.889  -2.370  -0.243  1.00  0.00     0.005 A 
ATOM     10  C   UNL     1      -0.133  -2.489   2.439  1.00  0.00     0.000 A 
ATOM     11  C   UNL     1      -1.735  -2.960   0.697  1.00  0.00     0.000 A 
ATOM     12  C   UNL     1      -1.356  -3.021   2.037  1.00  0.00     0.000 A 
ENDBRANCH   6   7
ENDBRANCH   2   5
TORSDOF 3
