REMARK SMILES COc1c(O)cc2oc(Oc3ccc(O)cc3)cc(=O)c2c1O
REMARK SMILES IDX 10 1 9 2 3 3 22 4 4 5 21 6 6 7 7 8 19 9 8 10 18 11 20 12
REMARK SMILES IDX 2 13 1 14 23 15 5 17 11 19 12 20 17 21 13 22 16 23 14 24
REMARK SMILES IDX 15 25
REMARK H PARENT 23 16 5 18 15 26
ROOT
ATOM      1  O   UNL     1      -2.148   1.006   2.193  1.00  0.00    -0.426 OA
ENDROOT
BRANCH   1   2
ATOM      2  C   UNL     1      -0.817   0.697   1.895  1.00  0.00     0.294 C 
ATOM      3  C   UNL     1       3.452  -0.618  -0.453  1.00  0.00     0.203 A 
ATOM      4  C   UNL     1       3.158  -0.243   0.875  1.00  0.00     0.176 A 
ATOM      5  C   UNL     1       2.411  -0.658  -1.387  1.00  0.00     0.165 A 
ATOM      6  C   UNL     1       1.858   0.087   1.270  1.00  0.00     0.111 A 
ATOM      7  C   UNL     1       1.109  -0.329  -1.000  1.00  0.00     0.098 A 
ATOM      8  C   UNL     1       0.839   0.040   0.321  1.00  0.00     0.149 A 
ATOM      9  C   UNL     1       1.494   0.486   2.647  1.00  0.00     0.200 C 
ATOM     10  O   UNL     1      -0.470   0.344   0.599  1.00  0.00    -0.425 OA
ATOM     11  C   UNL     1       0.073   0.784   2.888  1.00  0.00     0.142 C 
ATOM     12  O   UNL     1       2.282   0.582   3.578  1.00  0.00    -0.289 OA
BRANCH   3  13
ATOM     13  O   UNL     1       4.781  -0.905  -0.649  1.00  0.00    -0.490 OA
ATOM     14  C   UNL     1       5.204  -1.296  -1.948  1.00  0.00     0.278 C 
ENDBRANCH   3  13
BRANCH   4  15
ATOM     15  O   UNL     1       4.195  -0.213   1.772  1.00  0.00    -0.504 OA
ATOM     16  H   UNL     1       4.993  -0.477   1.274  1.00  0.00     0.293 HD
ENDBRANCH   4  15
BRANCH   5  17
ATOM     17  O   UNL     1       2.627  -1.013  -2.688  1.00  0.00    -0.504 OA
ATOM     18  H   UNL     1       1.789  -0.989  -3.180  1.00  0.00     0.293 HD
ENDBRANCH   5  17
ENDBRANCH   1   2
BRANCH   1  19
ATOM     19  C   UNL     1      -3.081   0.753   1.219  1.00  0.00     0.131 A 
ATOM     20  C   UNL     1      -3.432  -0.557   0.887  1.00  0.00     0.051 A 
ATOM     21  C   UNL     1      -3.720   1.837   0.618  1.00  0.00     0.051 A 
ATOM     22  C   UNL     1      -4.407  -0.780  -0.086  1.00  0.00     0.050 A 
ATOM     23  C   UNL     1      -4.697   1.612  -0.354  1.00  0.00     0.050 A 
ATOM     24  C   UNL     1      -5.029   0.304  -0.699  1.00  0.00     0.115 A 
BRANCH  24  25
ATOM     25  O   UNL     1      -5.976   0.039  -1.643  1.00  0.00    -0.508 OA
ATOM     26  H   UNL     1      -6.349   0.880  -1.955  1.00  0.00     0.293 HD
ENDBRANCH  24  25
ENDBRANCH   1  19
TORSDOF 6
