REMARK SMILES Oc1cc(O)c2c(c1)O[C@H](c1ccc(O)c(O)c1)[C@@H](O)C2
REMARK SMILES IDX 21 1 19 2 10 3 9 4 7 5 8 6 2 7 3 8 4 9 6 10 20 11 11 13
REMARK SMILES IDX 18 14 12 15 16 16 13 17 14 18 17 19 15 21 5 23 1 25
REMARK H PARENT 20 12 17 20 15 22 5 24 1 26
ROOT
ATOM      1  C   UNL     1       1.777  -1.227  -0.996  1.00  0.00     0.079 C 
ATOM      2  C   UNL     1       0.298  -1.352  -0.635  1.00  0.00     0.164 C 
ATOM      3  C   UNL     1      -0.299   0.064  -0.534  1.00  0.00     0.232 C 
ATOM      4  O   UNL     1       0.340   0.835   0.492  1.00  0.00    -0.482 OA
ATOM      5  C   UNL     1       1.709   0.812   0.474  1.00  0.00     0.131 A 
ATOM      6  C   UNL     1       2.331   1.804   1.234  1.00  0.00     0.093 A 
ATOM      7  C   UNL     1       3.717   1.869   1.282  1.00  0.00     0.122 A 
ATOM      8  C   UNL     1       4.492   0.955   0.580  1.00  0.00     0.092 A 
ATOM      9  C   UNL     1       3.864  -0.039  -0.170  1.00  0.00     0.126 A 
ATOM     10  C   UNL     1       2.466  -0.144  -0.218  1.00  0.00     0.039 A 
ENDROOT
BRANCH   2  11
ATOM     11  O   UNL     1      -0.335  -2.142  -1.648  1.00  0.00    -0.389 OA
ATOM     12  H   UNL     1      -1.250  -2.303  -1.351  1.00  0.00     0.211 HD
ENDBRANCH   2  11
BRANCH   3  13
ATOM     13  C   UNL     1      -1.786   0.017  -0.211  1.00  0.00    -0.001 A 
ATOM     14  C   UNL     1      -2.239  -0.383   1.057  1.00  0.00     0.057 A 
ATOM     15  C   UNL     1      -2.735   0.352  -1.197  1.00  0.00     0.012 A 
ATOM     16  C   UNL     1      -3.601  -0.446   1.314  1.00  0.00     0.157 A 
ATOM     17  C   UNL     1      -4.106   0.291  -0.926  1.00  0.00     0.050 A 
ATOM     18  C   UNL     1      -4.530  -0.111   0.334  1.00  0.00     0.157 A 
BRANCH  16  19
ATOM     19  O   UNL     1      -4.027  -0.845   2.549  1.00  0.00    -0.504 OA
ATOM     20  H   UNL     1      -5.002  -0.792   2.501  1.00  0.00     0.293 HD
ENDBRANCH  16  19
BRANCH  18  21
ATOM     21  O   UNL     1      -5.855  -0.193   0.659  1.00  0.00    -0.504 OA
ATOM     22  H   UNL     1      -6.374   0.104  -0.108  1.00  0.00     0.293 HD
ENDBRANCH  18  21
ENDBRANCH   3  13
BRANCH   9  23
ATOM     23  O   UNL     1       4.698  -0.890  -0.841  1.00  0.00    -0.507 OA
ATOM     24  H   UNL     1       4.182  -1.468  -1.424  1.00  0.00     0.293 HD
ENDBRANCH   9  23
BRANCH   7  25
ATOM     25  O   UNL     1       4.285   2.856   2.031  1.00  0.00    -0.508 OA
ATOM     26  H   UNL     1       5.251   2.766   1.980  1.00  0.00     0.293 HD
ENDBRANCH   7  25
TORSDOF 6
