REMARK SMILES COc1ccc(-c2coc3cc(O)ccc3c2=O)cc1
REMARK SMILES IDX 7 1 8 2 9 3 10 4 16 5 17 6 18 7 15 8 14 9 12 10 11 11 6 12
REMARK SMILES IDX 3 13 4 14 20 15 5 16 19 17 2 18 1 19 13 20
REMARK H PARENT 13 21
ROOT
ATOM      1  C   UNL     1       0.289   0.099  -0.387  1.00  0.00     0.065 C 
ATOM      2  C   UNL     1       0.883   0.925  -1.263  1.00  0.00     0.208 C 
ATOM      3  O   UNL     1       2.231   1.148  -1.406  1.00  0.00    -0.463 OA
ATOM      4  C   UNL     1       3.082   0.456  -0.582  1.00  0.00     0.141 A 
ATOM      5  C   UNL     1       2.630  -0.450   0.377  1.00  0.00     0.066 A 
ATOM      6  C   UNL     1       1.181  -0.679   0.520  1.00  0.00     0.200 C 
ATOM      7  O   UNL     1       0.754  -1.473   1.351  1.00  0.00    -0.288 OA
ATOM      8  C   UNL     1       3.544  -1.128   1.190  1.00  0.00     0.020 A 
ATOM      9  C   UNL     1       4.911  -0.894   1.035  1.00  0.00     0.047 A 
ATOM     10  C   UNL     1       5.352   0.012   0.075  1.00  0.00     0.119 A 
ATOM     11  C   UNL     1       4.449   0.692  -0.738  1.00  0.00     0.094 A 
ENDROOT
BRANCH   1  12
ATOM     12  C   UNL     1      -1.178  -0.041  -0.366  1.00  0.00    -0.011 A 
ATOM     13  C   UNL     1      -3.989  -0.316  -0.343  1.00  0.00     0.118 A 
ATOM     14  C   UNL     1      -3.407   0.950  -0.283  1.00  0.00     0.047 A 
ATOM     15  C   UNL     1      -3.165  -1.440  -0.408  1.00  0.00     0.047 A 
ATOM     16  C   UNL     1      -2.012   1.085  -0.293  1.00  0.00     0.013 A 
ATOM     17  C   UNL     1      -1.773  -1.307  -0.417  1.00  0.00     0.013 A 
BRANCH  13  18
ATOM     18  O   UNL     1      -5.329  -0.587  -0.343  1.00  0.00    -0.497 OA
ATOM     19  C   UNL     1      -6.211   0.523  -0.231  1.00  0.00     0.278 C 
ENDBRANCH  13  18
ENDBRANCH   1  12
BRANCH  10  20
ATOM     20  O   UNL     1       6.696   0.208  -0.039  1.00  0.00    -0.508 OA
ATOM     21  H   UNL     1       6.865   0.856  -0.742  1.00  0.00     0.293 HD
ENDBRANCH  10  20
TORSDOF 3
