REMARK SMILES O=c1c(-c2ccc(O)cc2)coc2cc(O[C@@H]3O[C@H](CO)[C@@H](O)[C@H](O)[C@H]3O)cc(O)c12
REMARK SMILES IDX 16 1 15 2 3 3 11 4 2 5 12 6 31 7 1 8 13 9 29 10 14 11 28 12
REMARK SMILES IDX 4 13 5 14 6 15 7 16 10 17 9 18 8 19 30 21 17 23 26 24 18 25
REMARK SMILES IDX 24 26 19 27 22 28 27 29 25 31 20 33 21 34 23 36
REMARK H PARENT 8 20 30 22 27 30 25 32 21 35 23 37
ROOT
ATOM      1  O   UNL     1      -2.312  -0.861   0.366  1.00  0.00    -0.462 OA
ENDROOT
BRANCH   1   2
ATOM      2  C   UNL     1      -1.021  -0.601  -0.001  1.00  0.00     0.130 A 
ATOM      3  C   UNL     1       4.007   0.155   0.535  1.00  0.00     0.065 C 
ATOM      4  C   UNL     1       3.412  -0.114   1.708  1.00  0.00     0.208 C 
ATOM      5  C   UNL     1       3.133   0.165  -0.670  1.00  0.00     0.204 C 
ATOM      6  O   UNL     1       2.077  -0.364   1.918  1.00  0.00    -0.463 OA
ATOM      7  C   UNL     1       1.699  -0.094  -0.462  1.00  0.00     0.107 A 
ATOM      8  O   UNL     1       3.550   0.378  -1.805  1.00  0.00    -0.288 OA
ATOM      9  C   UNL     1       1.246  -0.346   0.828  1.00  0.00     0.145 A 
ATOM     10  C   UNL     1       0.788  -0.092  -1.522  1.00  0.00     0.134 A 
ATOM     11  C   UNL     1      -0.108  -0.597   1.059  1.00  0.00     0.094 A 
ATOM     12  C   UNL     1      -0.568  -0.341  -1.295  1.00  0.00     0.093 A 
BRANCH   3  13
ATOM     13  C   UNL     1       5.460   0.393   0.462  1.00  0.00    -0.011 A 
ATOM     14  C   UNL     1       6.247  -0.287  -0.480  1.00  0.00     0.013 A 
ATOM     15  C   UNL     1       7.627  -0.069  -0.554  1.00  0.00     0.047 A 
ATOM     16  C   UNL     1       8.224   0.833   0.318  1.00  0.00     0.115 A 
ATOM     17  C   UNL     1       6.087   1.305   1.327  1.00  0.00     0.013 A 
ATOM     18  C   UNL     1       7.466   1.521   1.256  1.00  0.00     0.047 A 
BRANCH  16  19
ATOM     19  O   UNL     1       9.564   1.077   0.282  1.00  0.00    -0.508 OA
ATOM     20  H   UNL     1       9.954   0.560  -0.441  1.00  0.00     0.293 HD
ENDBRANCH  16  19
ENDBRANCH   3  13
BRANCH  10  21
ATOM     21  O   UNL     1       1.156   0.148  -2.819  1.00  0.00    -0.507 OA
ATOM     22  H   UNL     1       2.126   0.320  -2.837  1.00  0.00     0.293 HD
ENDBRANCH  10  21
ENDBRANCH   1   2
BRANCH   1  23
ATOM     23  C   UNL     1      -3.302  -0.999  -0.665  1.00  0.00     0.339 C 
ATOM     24  C   UNL     1      -4.541  -1.653  -0.012  1.00  0.00     0.214 C 
ATOM     25  O   UNL     1      -3.592   0.235  -1.327  1.00  0.00    -0.332 OA
ATOM     26  C   UNL     1      -5.791  -1.203  -0.750  1.00  0.00     0.180 C 
ATOM     27  C   UNL     1      -4.605   1.057  -0.726  1.00  0.00     0.179 C 
ATOM     28  C   UNL     1      -5.959   0.316  -0.635  1.00  0.00     0.177 C 
BRANCH  24  29
ATOM     29  O   UNL     1      -4.467  -3.090  -0.042  1.00  0.00    -0.384 OA
ATOM     30  H   UNL     1      -3.652  -3.341   0.433  1.00  0.00     0.211 HD
ENDBRANCH  24  29
BRANCH  26  31
ATOM     31  O   UNL     1      -6.952  -1.849  -0.203  1.00  0.00    -0.387 OA
ATOM     32  H   UNL     1      -6.706  -2.794  -0.135  1.00  0.00     0.211 HD
ENDBRANCH  26  31
BRANCH  27  33
ATOM     33  C   UNL     1      -4.128   1.627   0.622  1.00  0.00     0.191 C 
BRANCH  33  34
ATOM     34  O   UNL     1      -5.053   2.577   1.135  1.00  0.00    -0.394 OA
ATOM     35  H   UNL     1      -4.628   3.016   1.892  1.00  0.00     0.210 HD
ENDBRANCH  33  34
ENDBRANCH  27  33
BRANCH  28  36
ATOM     36  O   UNL     1      -6.824   0.726  -1.711  1.00  0.00    -0.387 OA
ATOM     37  H   UNL     1      -7.644   0.207  -1.600  1.00  0.00     0.211 HD
ENDBRANCH  28  36
ENDBRANCH   1  23
TORSDOF 10
