REMARK SMILES COC[C@@H]1Cc2cc(OC)c3c(c2[C@H](c2ccc(OC)c(OC)c2)[C@H]1COC)OCO3
REMARK SMILES IDX 4 1 5 2 6 3 7 4 8 5 11 6 12 7 13 8 14 9 25 10 29 11 30 12
REMARK SMILES IDX 31 13 3 14 2 15 1 16 26 17 27 18 28 19 15 20 24 21 16 22
REMARK SMILES IDX 21 23 17 24 18 25 22 26 23 27 19 28 20 29 9 30 10 31
REMARK H PARENT
ROOT
ATOM      1  C   UNL     1      -1.601  -1.697   0.860  1.00  0.00     0.026 C 
ATOM      2  C   UNL     1      -2.589  -0.737   0.185  1.00  0.00     0.042 C 
ATOM      3  C   UNL     1      -1.984   0.573  -0.260  1.00  0.00    -0.036 A 
ATOM      4  C   UNL     1      -2.711   1.356  -1.196  1.00  0.00     0.054 A 
ATOM      5  C   UNL     1      -2.263   2.617  -1.601  1.00  0.00     0.165 A 
ATOM      6  C   UNL     1      -1.090   3.076  -1.032  1.00  0.00     0.207 A 
ATOM      7  C   UNL     1      -0.383   2.329  -0.114  1.00  0.00     0.173 A 
ATOM      8  C   UNL     1      -0.784   1.060   0.290  1.00  0.00     0.010 A 
ATOM      9  C   UNL     1       0.051   0.267   1.280  1.00  0.00     0.059 C 
ATOM     10  C   UNL     1      -0.673  -0.982   1.873  1.00  0.00     0.033 C 
ATOM     11  O   UNL     1       0.733   2.981   0.323  1.00  0.00    -0.453 OA
ATOM     12  C   UNL     1       0.657   4.204  -0.430  1.00  0.00     0.468 C 
ATOM     13  O   UNL     1      -0.494   4.277  -1.287  1.00  0.00    -0.450 OA
ENDROOT
BRANCH   1  14
ATOM     14  C   UNL     1      -0.811  -2.493  -0.194  1.00  0.00     0.164 C 
BRANCH  14  15
ATOM     15  O   UNL     1      -1.696  -3.423  -0.827  1.00  0.00    -0.384 OA
ATOM     16  C   UNL     1      -1.023  -4.189  -1.818  1.00  0.00     0.194 C 
ENDBRANCH  14  15
ENDBRANCH   1  14
BRANCH  10  17
ATOM     17  C   UNL     1      -1.418  -0.621   3.179  1.00  0.00     0.164 C 
BRANCH  17  18
ATOM     18  O   UNL     1      -2.363   0.422   2.980  1.00  0.00    -0.384 OA
ATOM     19  C   UNL     1      -3.042   0.764   4.180  1.00  0.00     0.194 C 
ENDBRANCH  17  18
ENDBRANCH  10  17
BRANCH   9  20
ATOM     20  C   UNL     1       1.455  -0.119   0.780  1.00  0.00    -0.036 A 
ATOM     21  C   UNL     1       1.783  -0.226  -0.582  1.00  0.00     0.054 A 
ATOM     22  C   UNL     1       2.460  -0.384   1.723  1.00  0.00     0.008 A 
ATOM     23  C   UNL     1       3.070  -0.596  -0.996  1.00  0.00     0.161 A 
ATOM     24  C   UNL     1       3.745  -0.761   1.322  1.00  0.00     0.051 A 
ATOM     25  C   UNL     1       4.059  -0.874  -0.034  1.00  0.00     0.160 A 
BRANCH  23  26
ATOM     26  O   UNL     1       3.449  -0.727  -2.311  1.00  0.00    -0.493 OA
ATOM     27  C   UNL     1       2.559  -0.228  -3.300  1.00  0.00     0.278 C 
ENDBRANCH  23  26
BRANCH  25  28
ATOM     28  O   UNL     1       5.290  -1.241  -0.520  1.00  0.00    -0.493 OA
ATOM     29  C   UNL     1       6.320  -1.495   0.423  1.00  0.00     0.278 C 
ENDBRANCH  25  28
ENDBRANCH   9  20
BRANCH   5  30
ATOM     30  O   UNL     1      -2.877   3.442  -2.497  1.00  0.00    -0.493 OA
ATOM     31  C   UNL     1      -4.096   2.985  -3.066  1.00  0.00     0.278 C 
ENDBRANCH   5  30
TORSDOF 8
