REMARK SMILES COc1cc(-c2oc3cc(O)cc(O)c3c(=O)c2O)ccc1O
REMARK SMILES IDX 6 1 18 2 16 3 17 4 15 5 13 6 12 7 10 8 9 9 8 10 7 11 5 12
REMARK SMILES IDX 3 13 22 14 4 15 21 16 20 17 2 18 1 19 23 20 19 22 14 24
REMARK SMILES IDX 11 26
REMARK H PARENT 23 21 19 23 14 25 11 27
ROOT
ATOM      1  C   UNL     1       0.030  -0.222   0.159  1.00  0.00     0.180 C 
ATOM      2  C   UNL     1       0.212  -1.353  -0.547  1.00  0.00     0.208 C 
ATOM      3  C   UNL     1       1.596  -1.777  -0.860  1.00  0.00     0.238 C 
ATOM      4  O   UNL     1       1.803  -2.807  -1.498  1.00  0.00    -0.285 OA
ATOM      5  C   UNL     1       2.688  -0.926  -0.384  1.00  0.00     0.111 A 
ATOM      6  C   UNL     1       4.027  -1.236  -0.638  1.00  0.00     0.134 A 
ATOM      7  C   UNL     1       5.035  -0.399  -0.168  1.00  0.00     0.093 A 
ATOM      8  C   UNL     1       4.699   0.743   0.552  1.00  0.00     0.123 A 
ATOM      9  C   UNL     1       3.368   1.062   0.813  1.00  0.00     0.094 A 
ATOM     10  C   UNL     1       2.361   0.219   0.340  1.00  0.00     0.146 A 
ATOM     11  O   UNL     1       1.068   0.577   0.626  1.00  0.00    -0.452 OA
ENDROOT
BRANCH   1  12
ATOM     12  C   UNL     1      -1.305   0.288   0.541  1.00  0.00     0.025 A 
ATOM     13  C   UNL     1      -3.593   0.919  -0.034  1.00  0.00     0.161 A 
ATOM     14  C   UNL     1      -3.797   1.316   1.294  1.00  0.00     0.157 A 
ATOM     15  C   UNL     1      -2.341   0.414  -0.402  1.00  0.00     0.062 A 
ATOM     16  C   UNL     1      -2.781   1.207   2.241  1.00  0.00     0.051 A 
ATOM     17  C   UNL     1      -1.539   0.696   1.862  1.00  0.00     0.016 A 
BRANCH  13  18
ATOM     18  O   UNL     1      -4.657   1.074  -0.883  1.00  0.00    -0.493 OA
ATOM     19  C   UNL     1      -4.531   0.539  -2.193  1.00  0.00     0.278 C 
ENDBRANCH  13  18
BRANCH  14  20
ATOM     20  O   UNL     1      -5.018   1.817   1.662  1.00  0.00    -0.504 OA
ATOM     21  H   UNL     1      -5.004   2.026   2.609  1.00  0.00     0.293 HD
ENDBRANCH  14  20
ENDBRANCH   1  12
BRANCH   2  22
ATOM     22  O   UNL     1      -0.812  -2.168  -0.993  1.00  0.00    -0.502 OA
ATOM     23  H   UNL     1      -0.371  -2.921  -1.438  1.00  0.00     0.293 HD
ENDBRANCH   2  22
BRANCH   6  24
ATOM     24  O   UNL     1       4.416  -2.344  -1.340  1.00  0.00    -0.507 OA
ATOM     25  H   UNL     1       3.614  -2.844  -1.608  1.00  0.00     0.293 HD
ENDBRANCH   6  24
BRANCH   8  26
ATOM     26  O   UNL     1       5.716   1.537   0.993  1.00  0.00    -0.508 OA
ATOM     27  H   UNL     1       5.348   2.301   1.467  1.00  0.00     0.293 HD
ENDBRANCH   8  26
TORSDOF 6
