REMARK SMILES O=c1cc(-c2ccc(O)cc2)oc2cc(O)c([C@@H]3O[C@H](CO)[C@@H](O)[C@H](O)[C@H]3O)c(O)c12
REMARK SMILES IDX 4 1 3 2 2 3 1 4 31 5 13 6 12 7 14 8 15 9 17 10 29 11 5 12
REMARK SMILES IDX 6 13 7 14 8 15 11 16 10 17 9 18 30 20 16 22 18 24 27 25
REMARK SMILES IDX 19 26 25 27 20 28 23 29 28 30 26 32 21 34 22 35 24 37
REMARK H PARENT 9 19 30 21 16 23 28 31 26 33 22 36 24 38
ROOT
ATOM      1  C   UNL     1       3.734   0.184   0.249  1.00  0.00     0.138 C 
ATOM      2  C   UNL     1       3.176   0.876   1.253  1.00  0.00     0.100 C 
ATOM      3  C   UNL     1       1.712   0.923   1.358  1.00  0.00     0.197 C 
ATOM      4  O   UNL     1       1.154   1.535   2.262  1.00  0.00    -0.289 OA
ATOM      5  C   UNL     1       0.940   0.207   0.333  1.00  0.00     0.107 A 
ATOM      6  C   UNL     1       1.643  -0.484  -0.647  1.00  0.00     0.146 A 
ATOM      7  O   UNL     1       3.014  -0.519  -0.704  1.00  0.00    -0.456 OA
ATOM      8  C   UNL     1       0.952  -1.205  -1.615  1.00  0.00     0.094 A 
ATOM      9  C   UNL     1      -0.444  -1.213  -1.610  1.00  0.00     0.128 A 
ATOM     10  C   UNL     1      -1.184  -0.469  -0.676  1.00  0.00     0.068 A 
ATOM     11  C   UNL     1      -0.464   0.201   0.332  1.00  0.00     0.140 A 
ENDROOT
BRANCH   1  12
ATOM     12  C   UNL     1       5.199   0.089   0.091  1.00  0.00     0.018 A 
ATOM     13  C   UNL     1       5.789  -1.137  -0.256  1.00  0.00     0.016 A 
ATOM     14  C   UNL     1       7.173  -1.248  -0.420  1.00  0.00     0.047 A 
ATOM     15  C   UNL     1       7.973  -0.127  -0.241  1.00  0.00     0.115 A 
ATOM     16  C   UNL     1       6.030   1.209   0.256  1.00  0.00     0.016 A 
ATOM     17  C   UNL     1       7.413   1.099   0.093  1.00  0.00     0.047 A 
BRANCH  15  18
ATOM     18  O   UNL     1       9.327  -0.187  -0.390  1.00  0.00    -0.508 OA
ATOM     19  H   UNL     1       9.574  -1.094  -0.632  1.00  0.00     0.293 HD
ENDBRANCH  15  18
ENDBRANCH   1  12
BRANCH  11  20
ATOM     20  O   UNL     1      -1.177   0.814   1.331  1.00  0.00    -0.506 OA
ATOM     21  H   UNL     1      -0.558   1.334   1.894  1.00  0.00     0.293 HD
ENDBRANCH  11  20
BRANCH   9  22
ATOM     22  O   UNL     1      -1.029  -2.009  -2.556  1.00  0.00    -0.507 OA
ATOM     23  H   UNL     1      -1.850  -2.390  -2.197  1.00  0.00     0.293 HD
ENDBRANCH   9  22
BRANCH  10  24
ATOM     24  C   UNL     1      -2.701  -0.382  -0.759  1.00  0.00     0.188 C 
ATOM     25  C   UNL     1      -3.371  -1.238   0.333  1.00  0.00     0.179 C 
ATOM     26  O   UNL     1      -3.108   0.992  -0.702  1.00  0.00    -0.362 OA
ATOM     27  C   UNL     1      -4.888  -1.051   0.259  1.00  0.00     0.177 C 
ATOM     28  C   UNL     1      -4.528   1.173  -0.817  1.00  0.00     0.176 C 
ATOM     29  C   UNL     1      -5.250   0.433   0.316  1.00  0.00     0.177 C 
BRANCH  25  30
ATOM     30  O   UNL     1      -3.087  -2.637   0.141  1.00  0.00    -0.387 OA
ATOM     31  H   UNL     1      -2.215  -2.794   0.554  1.00  0.00     0.211 HD
ENDBRANCH  25  30
BRANCH  27  32
ATOM     32  O   UNL     1      -5.532  -1.735   1.346  1.00  0.00    -0.387 OA
ATOM     33  H   UNL     1      -5.157  -2.638   1.341  1.00  0.00     0.211 HD
ENDBRANCH  27  32
BRANCH  28  34
ATOM     34  C   UNL     1      -4.849   2.677  -0.842  1.00  0.00     0.191 C 
BRANCH  34  35
ATOM     35  O   UNL     1      -4.706   3.301   0.433  1.00  0.00    -0.394 OA
ATOM     36  H   UNL     1      -5.483   3.045   0.960  1.00  0.00     0.210 HD
ENDBRANCH  34  35
ENDBRANCH  28  34
BRANCH  29  37
ATOM     37  O   UNL     1      -6.669   0.578   0.207  1.00  0.00    -0.388 OA
ATOM     38  H   UNL     1      -7.037  -0.084   0.828  1.00  0.00     0.211 HD
ENDBRANCH  29  37
ENDBRANCH  10  24
TORSDOF 10
