REMARK SMILES Oc1cc(O)cc(-c2cc3ccc(O)cc3o2)c1
REMARK SMILES IDX 12 1 11 2 10 3 16 4 15 5 13 6 17 7 8 8 9 9 14 10 7 12 6 13
REMARK SMILES IDX 18 14 4 15 2 16 3 17 5 18 1 20
REMARK H PARENT 14 11 5 19 1 21
ROOT
ATOM      1  C   UNL     1       4.396  -0.617   0.419  1.00  0.00     0.047 A 
ATOM      2  C   UNL     1       3.253  -1.366   0.738  1.00  0.00     0.016 A 
ATOM      3  C   UNL     1       1.988  -0.823   0.449  1.00  0.00     0.021 A 
ATOM      4  C   UNL     1       1.921   0.432  -0.142  1.00  0.00     0.138 A 
ATOM      5  C   UNL     1       3.033   1.201  -0.472  1.00  0.00     0.093 A 
ATOM      6  C   UNL     1       4.274   0.640  -0.174  1.00  0.00     0.119 A 
ATOM      7  O   UNL     1       0.624   0.788  -0.345  1.00  0.00    -0.456 OA
ATOM      8  C   UNL     1      -0.163  -0.233   0.113  1.00  0.00     0.135 A 
ATOM      9  C   UNL     1       0.640  -1.244   0.609  1.00  0.00     0.059 A 
ENDROOT
BRANCH   6  10
ATOM     10  O   UNL     1       5.381   1.376  -0.489  1.00  0.00    -0.508 OA
ATOM     11  H   UNL     1       6.174   0.877  -0.234  1.00  0.00     0.293 HD
ENDBRANCH   6  10
BRANCH   8  12
ATOM     12  C   UNL     1      -1.608  -0.043  -0.017  1.00  0.00     0.025 A 
ATOM     13  C   UNL     1      -2.500  -1.034   0.424  1.00  0.00     0.058 A 
ATOM     14  C   UNL     1      -2.135   1.131  -0.582  1.00  0.00     0.058 A 
ATOM     15  C   UNL     1      -3.877  -0.846   0.298  1.00  0.00     0.120 A 
ATOM     16  C   UNL     1      -3.515   1.299  -0.698  1.00  0.00     0.120 A 
ATOM     17  C   UNL     1      -4.391   0.316  -0.262  1.00  0.00     0.092 A 
BRANCH  15  18
ATOM     18  O   UNL     1      -4.764  -1.794   0.718  1.00  0.00    -0.508 OA
ATOM     19  H   UNL     1      -4.274  -2.547   1.085  1.00  0.00     0.293 HD
ENDBRANCH  15  18
BRANCH  16  20
ATOM     20  O   UNL     1      -4.046   2.430  -1.244  1.00  0.00    -0.508 OA
ATOM     21  H   UNL     1      -3.321   3.023  -1.502  1.00  0.00     0.293 HD
ENDBRANCH  16  20
ENDBRANCH   8  12
TORSDOF 4
