REMARK SMILES CC(C)=CCc1cc2cc(-c3cc(O)cc(O)c3)oc2cc1O
REMARK SMILES IDX 6 1 22 2 21 3 20 4 8 5 7 6 9 7 10 8 19 9 5 10 4 11 2 12 1 13
REMARK SMILES IDX 3 14 23 15 11 17 18 18 12 19 16 20 13 21 15 22 17 23 14 25
REMARK H PARENT 23 16 17 24 14 26
ROOT
ATOM      1  C   UNL     1      -2.023   0.926   0.510  1.00  0.00    -0.002 A 
ATOM      2  C   UNL     1      -1.647   0.298   1.708  1.00  0.00     0.122 A 
ATOM      3  C   UNL     1      -0.330  -0.094   1.967  1.00  0.00     0.094 A 
ATOM      4  C   UNL     1       0.595   0.173   0.961  1.00  0.00     0.138 A 
ATOM      5  C   UNL     1       0.286   0.785  -0.244  1.00  0.00     0.021 A 
ATOM      6  C   UNL     1      -1.045   1.169  -0.481  1.00  0.00     0.020 A 
ATOM      7  C   UNL     1       1.509   0.856  -0.963  1.00  0.00     0.059 A 
ATOM      8  C   UNL     1       2.485   0.290  -0.163  1.00  0.00     0.135 A 
ATOM      9  O   UNL     1       1.921  -0.126   1.012  1.00  0.00    -0.456 OA
ENDROOT
BRANCH   1  10
ATOM     10  C   UNL     1      -3.460   1.320   0.238  1.00  0.00     0.066 C 
BRANCH  10  11
ATOM     11  C   UNL     1      -4.201   0.273  -0.552  1.00  0.00    -0.023 C 
ATOM     12  C   UNL     1      -5.238  -0.493  -0.157  1.00  0.00    -0.080 C 
ATOM     13  C   UNL     1      -5.860  -1.487  -1.103  1.00  0.00     0.039 C 
ATOM     14  C   UNL     1      -5.866  -0.468   1.208  1.00  0.00     0.039 C 
ENDBRANCH  10  11
ENDBRANCH   1  10
BRANCH   2  15
ATOM     15  O   UNL     1      -2.608   0.068   2.657  1.00  0.00    -0.508 OA
ATOM     16  H   UNL     1      -2.209  -0.423   3.395  1.00  0.00     0.293 HD
ENDBRANCH   2  15
BRANCH   8  17
ATOM     17  C   UNL     1       3.921   0.057  -0.309  1.00  0.00     0.025 A 
ATOM     18  C   UNL     1       4.592   0.446  -1.481  1.00  0.00     0.058 A 
ATOM     19  C   UNL     1       4.666  -0.556   0.711  1.00  0.00     0.058 A 
ATOM     20  C   UNL     1       5.962   0.221  -1.614  1.00  0.00     0.120 A 
ATOM     21  C   UNL     1       6.034  -0.772   0.559  1.00  0.00     0.120 A 
ATOM     22  C   UNL     1       6.692  -0.387  -0.600  1.00  0.00     0.092 A 
BRANCH  20  23
ATOM     23  O   UNL     1       6.637   0.588  -2.742  1.00  0.00    -0.508 OA
ATOM     24  H   UNL     1       6.012   0.997  -3.364  1.00  0.00     0.293 HD
ENDBRANCH  20  23
BRANCH  21  25
ATOM     25  O   UNL     1       6.700  -1.373   1.587  1.00  0.00    -0.508 OA
ATOM     26  H   UNL     1       7.636  -1.457   1.341  1.00  0.00     0.293 HD
ENDBRANCH  21  25
ENDBRANCH   8  17
TORSDOF 6
