REMARK SMILES CC1=C[C@H]2c3c(O)cc(-c4cc5ccc(O)cc5o4)cc3O[C@@]3(c4ccc(O)cc4O)Oc4cc(O)ccc4[C@H](C1)[C@@H]23
REMARK SMILES IDX 1 1 2 2 3 3 4 4 42 5 40 6 41 7 39 8 33 9 34 10 35 11 37 12
REMARK SMILES IDX 38 13 32 14 23 15 22 16 21 17 20 18 9 19 8 20 6 21 5 22
REMARK SMILES IDX 24 23 30 24 25 25 29 26 26 27 27 28 31 29 28 31 7 33 10 35
REMARK SMILES IDX 11 36 19 37 12 38 18 39 13 40 17 41 14 42 15 43 16 44 36 46
REMARK H PARENT 31 30 28 32 7 34 16 45 36 47
ROOT
ATOM      1  C   UNL     1      -3.408   1.236  -4.403  1.00  0.00     0.039 C 
ATOM      2  C   UNL     1      -2.907   1.083  -2.996  1.00  0.00    -0.076 C 
ATOM      3  C   UNL     1      -2.527  -0.108  -2.499  1.00  0.00    -0.019 C 
ATOM      4  C   UNL     1      -2.077  -0.360  -1.072  1.00  0.00     0.061 C 
ATOM      5  C   UNL     1      -2.435   0.852  -0.183  1.00  0.00     0.099 C 
ATOM      6  C   UNL     1      -2.027   2.175  -0.882  1.00  0.00     0.039 C 
ATOM      7  C   UNL     1      -2.853   2.343  -2.172  1.00  0.00     0.039 C 
ATOM      8  C   UNL     1      -2.131   3.337   0.080  1.00  0.00    -0.001 A 
ATOM      9  C   UNL     1      -2.156   3.102   1.457  1.00  0.00     0.131 A 
ATOM     10  C   UNL     1      -2.254   4.162   2.360  1.00  0.00     0.093 A 
ATOM     11  C   UNL     1      -2.290   5.468   1.893  1.00  0.00     0.119 A 
ATOM     12  C   UNL     1      -2.229   5.733   0.532  1.00  0.00     0.047 A 
ATOM     13  C   UNL     1      -2.144   4.669  -0.370  1.00  0.00     0.011 A 
ATOM     14  O   UNL     1      -2.112   1.861   2.020  1.00  0.00    -0.447 OA
ATOM     15  C   UNL     1      -1.732   0.751   1.177  1.00  0.00     0.285 C 
ATOM     16  O   UNL     1      -0.299   0.781   0.971  1.00  0.00    -0.447 OA
ATOM     17  C   UNL     1       0.179  -0.126   0.056  1.00  0.00     0.133 A 
ATOM     18  C   UNL     1       1.544  -0.414   0.180  1.00  0.00     0.059 A 
ATOM     19  C   UNL     1       2.153  -1.376  -0.630  1.00  0.00     0.025 A 
ATOM     20  C   UNL     1       1.354  -2.052  -1.558  1.00  0.00     0.058 A 
ATOM     21  C   UNL     1      -0.006  -1.746  -1.689  1.00  0.00     0.123 A 
ATOM     22  C   UNL     1      -0.613  -0.740  -0.924  1.00  0.00     0.044 A 
ENDROOT
BRANCH  15  23
ATOM     23  C   UNL     1      -2.100  -0.443   2.080  1.00  0.00     0.078 A 
ATOM     24  C   UNL     1      -1.250  -0.887   3.115  1.00  0.00     0.130 A 
ATOM     25  C   UNL     1      -3.346  -1.094   1.962  1.00  0.00     0.019 A 
ATOM     26  C   UNL     1      -1.589  -1.961   3.942  1.00  0.00     0.092 A 
ATOM     27  C   UNL     1      -3.691  -2.169   2.788  1.00  0.00     0.047 A 
ATOM     28  C   UNL     1      -2.808  -2.599   3.766  1.00  0.00     0.119 A 
BRANCH  24  29
ATOM     29  O   UNL     1      -0.047  -0.297   3.404  1.00  0.00    -0.507 OA
ATOM     30  H   UNL     1       0.081   0.456   2.798  1.00  0.00     0.293 HD
ENDBRANCH  24  29
BRANCH  28  31
ATOM     31  O   UNL     1      -3.183  -3.649   4.549  1.00  0.00    -0.508 OA
ATOM     32  H   UNL     1      -2.472  -3.822   5.188  1.00  0.00     0.293 HD
ENDBRANCH  28  31
ENDBRANCH  15  23
BRANCH  21  33
ATOM     33  O   UNL     1      -0.762  -2.476  -2.566  1.00  0.00    -0.507 OA
ATOM     34  H   UNL     1      -0.200  -3.144  -2.992  1.00  0.00     0.293 HD
ENDBRANCH  21  33
BRANCH  19  35
ATOM     35  C   UNL     1       3.576  -1.680  -0.487  1.00  0.00     0.135 A 
ATOM     36  C   UNL     1       4.573  -1.254   0.371  1.00  0.00     0.059 A 
ATOM     37  O   UNL     1       4.096  -2.579  -1.378  1.00  0.00    -0.456 OA
ATOM     38  C   UNL     1       5.765  -1.925  -0.008  1.00  0.00     0.021 A 
ATOM     39  C   UNL     1       5.417  -2.727  -1.088  1.00  0.00     0.138 A 
ATOM     40  C   UNL     1       7.097  -1.942   0.442  1.00  0.00     0.016 A 
ATOM     41  C   UNL     1       6.304  -3.559  -1.769  1.00  0.00     0.093 A 
ATOM     42  C   UNL     1       8.016  -2.768  -0.220  1.00  0.00     0.047 A 
ATOM     43  C   UNL     1       7.618  -3.554  -1.300  1.00  0.00     0.119 A 
BRANCH  43  44
ATOM     44  O   UNL     1       8.573  -4.332  -1.891  1.00  0.00    -0.508 OA
ATOM     45  H   UNL     1       8.165  -4.826  -2.621  1.00  0.00     0.293 HD
ENDBRANCH  43  44
ENDBRANCH  19  35
BRANCH  11  46
ATOM     46  O   UNL     1      -2.379   6.473   2.810  1.00  0.00    -0.508 OA
ATOM     47  H   UNL     1      -2.396   7.323   2.341  1.00  0.00     0.293 HD
ENDBRANCH  11  46
TORSDOF 7
