REMARK SMILES COc1c(O)c(C)cc2c1C(=O)c1c(O)cccc1C2=O
REMARK SMILES IDX 7 1 6 2 8 3 9 4 10 5 3 6 4 7 11 8 12 9 13 10 19 11 20 12
REMARK SMILES IDX 21 13 18 14 17 15 16 16 14 17 5 18 2 20 1 21 15 22
REMARK H PARENT 5 19 15 23
ROOT
ATOM      1  C   UNL     1      -3.845   2.345   0.567  1.00  0.00     0.048 C 
ATOM      2  C   UNL     1      -2.653   1.443   0.442  1.00  0.00    -0.005 A 
ATOM      3  C   UNL     1      -1.366   1.974   0.309  1.00  0.00     0.020 A 
ATOM      4  C   UNL     1      -0.243   1.131   0.229  1.00  0.00     0.038 A 
ATOM      5  C   UNL     1      -0.388  -0.259   0.263  1.00  0.00     0.080 A 
ATOM      6  C   UNL     1      -1.681  -0.794   0.366  1.00  0.00     0.172 A 
ATOM      7  C   UNL     1      -2.790   0.056   0.490  1.00  0.00     0.161 A 
ATOM      8  C   UNL     1       0.822  -1.115   0.201  1.00  0.00     0.202 C 
ATOM      9  O   UNL     1       0.757  -2.341   0.208  1.00  0.00    -0.288 OA
ATOM     10  C   UNL     1       2.161  -0.496   0.121  1.00  0.00     0.076 A 
ATOM     11  C   UNL     1       2.289   0.890   0.078  1.00  0.00     0.037 A 
ATOM     12  C   UNL     1       1.094   1.750   0.118  1.00  0.00     0.194 C 
ATOM     13  O   UNL     1       1.210   2.968   0.059  1.00  0.00    -0.289 OA
ATOM     14  C   UNL     1       3.559   1.482  -0.004  1.00  0.00     0.013 A 
ATOM     15  C   UNL     1       4.702   0.684  -0.043  1.00  0.00     0.005 A 
ATOM     16  C   UNL     1       4.581  -0.703  -0.000  1.00  0.00     0.047 A 
ATOM     17  C   UNL     1       3.319  -1.288   0.081  1.00  0.00     0.127 A 
ENDROOT
BRANCH   7  18
ATOM     18  O   UNL     1      -4.036  -0.481   0.677  1.00  0.00    -0.504 OA
ATOM     19  H   UNL     1      -3.898  -1.433   0.847  1.00  0.00     0.293 HD
ENDBRANCH   7  18
BRANCH   6  20
ATOM     20  O   UNL     1      -1.932  -2.143   0.431  1.00  0.00    -0.492 OA
ATOM     21  C   UNL     1      -2.075  -2.687  -0.886  1.00  0.00     0.278 C 
ENDBRANCH   6  20
BRANCH  17  22
ATOM     22  O   UNL     1       3.292  -2.657   0.117  1.00  0.00    -0.507 OA
ATOM     23  H   UNL     1       2.351  -2.942   0.177  1.00  0.00     0.293 HD
ENDBRANCH  17  22
TORSDOF 3
