REMARK SMILES COc1cc2c(c(O)c1OC)C(=O)c1c(cc(C)c(O)c1OC)C2=O
REMARK SMILES IDX 18 1 17 2 16 3 15 4 14 5 21 6 19 7 12 8 13 9 6 10 7 11 9 12
REMARK SMILES IDX 3 13 4 14 5 15 24 16 25 17 20 18 22 20 23 21 8 22 2 24 1 25
REMARK SMILES IDX 10 26 11 27
REMARK H PARENT 20 19 8 23
ROOT
ATOM      1  C   UNL     1      -5.009   2.276   0.171  1.00  0.00     0.048 C 
ATOM      2  C   UNL     1      -3.839   1.335   0.168  1.00  0.00    -0.005 A 
ATOM      3  C   UNL     1      -2.550   1.844  -0.035  1.00  0.00     0.020 A 
ATOM      4  C   UNL     1      -1.428   0.998  -0.041  1.00  0.00     0.038 A 
ATOM      5  C   UNL     1      -1.573  -0.377   0.143  1.00  0.00     0.080 A 
ATOM      6  C   UNL     1      -2.861  -0.897   0.351  1.00  0.00     0.172 A 
ATOM      7  C   UNL     1      -3.978  -0.041   0.383  1.00  0.00     0.161 A 
ATOM      8  C   UNL     1      -0.366  -1.242   0.100  1.00  0.00     0.202 C 
ATOM      9  O   UNL     1      -0.433  -2.467   0.127  1.00  0.00    -0.288 OA
ATOM     10  C   UNL     1       0.977  -0.633  -0.007  1.00  0.00     0.080 A 
ATOM     11  C   UNL     1       2.135  -1.424   0.042  1.00  0.00     0.173 A 
ATOM     12  C   UNL     1       3.399  -0.826  -0.064  1.00  0.00     0.203 A 
ATOM     13  C   UNL     1       3.528   0.560  -0.248  1.00  0.00     0.165 A 
ATOM     14  C   UNL     1       2.372   1.341  -0.293  1.00  0.00     0.063 A 
ATOM     15  C   UNL     1       1.105   0.744  -0.173  1.00  0.00     0.041 A 
ATOM     16  C   UNL     1      -0.094   1.599  -0.232  1.00  0.00     0.194 C 
ATOM     17  O   UNL     1       0.019   2.804  -0.430  1.00  0.00    -0.289 OA
ENDROOT
BRANCH   7  18
ATOM     18  O   UNL     1      -5.204  -0.598   0.635  1.00  0.00    -0.504 OA
ATOM     19  H   UNL     1      -5.841   0.091   0.876  1.00  0.00     0.293 HD
ENDBRANCH   7  18
BRANCH   6  20
ATOM     20  O   UNL     1      -3.039  -2.228   0.638  1.00  0.00    -0.492 OA
ATOM     21  C   UNL     1      -3.484  -2.940  -0.516  1.00  0.00     0.278 C 
ENDBRANCH   6  20
BRANCH  11  22
ATOM     22  O   UNL     1       2.081  -2.788   0.195  1.00  0.00    -0.504 OA
ATOM     23  H   UNL     1       1.137  -3.066   0.196  1.00  0.00     0.293 HD
ENDBRANCH  11  22
BRANCH  13  24
ATOM     24  O   UNL     1       4.805   1.043  -0.353  1.00  0.00    -0.493 OA
ATOM     25  C   UNL     1       4.963   2.418  -0.680  1.00  0.00     0.278 C 
ENDBRANCH  13  24
BRANCH  12  26
ATOM     26  O   UNL     1       4.528  -1.611  -0.074  1.00  0.00    -0.490 OA
ATOM     27  C   UNL     1       4.962  -1.863   1.261  1.00  0.00     0.278 C 
ENDBRANCH  12  26
TORSDOF 5
