REMARK SMILES COc1ccc(-c2coc3cc(O[C@@H]4O[C@H](CO)[C@@H](O)[C@H](O)[C@H]4O)ccc3c2=O)cc1
REMARK SMILES IDX 13 1 12 2 7 3 8 4 28 5 9 6 27 7 29 8 10 9 26 10 11 11 25 12
REMARK SMILES IDX 6 13 3 14 4 15 31 16 5 17 30 18 2 19 1 20 14 21 23 22 15 23
REMARK SMILES IDX 21 24 16 25 19 26 24 27 22 29 17 31 18 32 20 34
REMARK H PARENT 24 28 22 30 18 33 20 35
ROOT
ATOM      1  O   UNL     1      -3.071   0.279  -0.198  1.00  0.00    -0.462 OA
ENDROOT
BRANCH   1   2
ATOM      2  C   UNL     1      -1.742   0.293  -0.519  1.00  0.00     0.126 A 
ATOM      3  C   UNL     1       3.306   0.619   0.188  1.00  0.00     0.065 C 
ATOM      4  C   UNL     1       2.629   0.792   1.335  1.00  0.00     0.208 C 
ATOM      5  C   UNL     1       2.499   0.388  -1.044  1.00  0.00     0.200 C 
ATOM      6  O   UNL     1       1.266   0.761   1.502  1.00  0.00    -0.463 OA
ATOM      7  C   UNL     1       1.035   0.352  -0.876  1.00  0.00     0.066 A 
ATOM      8  O   UNL     1       3.002   0.230  -2.150  1.00  0.00    -0.288 OA
ATOM      9  C   UNL     1       0.494   0.540   0.391  1.00  0.00     0.141 A 
ATOM     10  C   UNL     1       0.193   0.129  -1.969  1.00  0.00     0.020 A 
ATOM     11  C   UNL     1      -0.889   0.509   0.569  1.00  0.00     0.094 A 
ATOM     12  C   UNL     1      -1.195   0.098  -1.789  1.00  0.00     0.047 A 
BRANCH   3  13
ATOM     13  C   UNL     1       4.778   0.695   0.167  1.00  0.00    -0.011 A 
ATOM     14  C   UNL     1       7.598   0.856   0.133  1.00  0.00     0.118 A 
ATOM     15  C   UNL     1       6.954   0.026   1.048  1.00  0.00     0.047 A 
ATOM     16  C   UNL     1       6.832   1.599  -0.766  1.00  0.00     0.047 A 
ATOM     17  C   UNL     1       5.555  -0.055   1.063  1.00  0.00     0.013 A 
ATOM     18  C   UNL     1       5.436   1.519  -0.753  1.00  0.00     0.013 A 
BRANCH  14  19
ATOM     19  O   UNL     1       8.949   1.028   0.014  1.00  0.00    -0.497 OA
ATOM     20  C   UNL     1       9.775   0.257   0.877  1.00  0.00     0.278 C 
ENDBRANCH  14  19
ENDBRANCH   3  13
ENDBRANCH   1   2
BRANCH   1  21
ATOM     21  C   UNL     1      -4.035   0.226  -1.257  1.00  0.00     0.339 C 
ATOM     22  C   UNL     1      -4.287  -1.239  -1.705  1.00  0.00     0.214 C 
ATOM     23  O   UNL     1      -5.248   0.863  -0.815  1.00  0.00    -0.332 OA
ATOM     24  C   UNL     1      -5.547  -1.821  -1.059  1.00  0.00     0.180 C 
ATOM     25  C   UNL     1      -5.913   0.227   0.283  1.00  0.00     0.179 C 
ATOM     26  C   UNL     1      -5.688  -1.293   0.362  1.00  0.00     0.177 C 
BRANCH  22  27
ATOM     27  O   UNL     1      -4.425  -1.329  -3.134  1.00  0.00    -0.384 OA
ATOM     28  H   UNL     1      -4.675  -2.257  -3.314  1.00  0.00     0.211 HD
ENDBRANCH  22  27
BRANCH  24  29
ATOM     29  O   UNL     1      -5.460  -3.254  -1.059  1.00  0.00    -0.387 OA
ATOM     30  H   UNL     1      -6.142  -3.542  -0.416  1.00  0.00     0.211 HD
ENDBRANCH  24  29
BRANCH  25  31
ATOM     31  C   UNL     1      -5.579   0.915   1.613  1.00  0.00     0.191 C 
BRANCH  31  32
ATOM     32  O   UNL     1      -6.308   0.306   2.679  1.00  0.00    -0.394 OA
ATOM     33  H   UNL     1      -6.134   0.844   3.474  1.00  0.00     0.210 HD
ENDBRANCH  31  32
ENDBRANCH  25  31
BRANCH  26  34
ATOM     34  O   UNL     1      -6.783  -1.954   1.009  1.00  0.00    -0.387 OA
ATOM     35  H   UNL     1      -6.922  -1.466   1.850  1.00  0.00     0.211 HD
ENDBRANCH  26  34
ENDBRANCH   1  21
TORSDOF 9
