REMARK SMILES Oc1cc(O)cc(/C=C/c2ccc(O)cc2O)c1
REMARK SMILES IDX 9 1 8 2 10 3 12 4 11 5 13 6 15 7 16 8 14 9 17 11 7 13 6 14
REMARK SMILES IDX 18 15 4 16 2 17 3 18 5 19 1 21
REMARK H PARENT 14 10 17 12 5 20 1 22
ROOT
ATOM      1  C   UNL     1       0.577  -0.304   0.422  1.00  0.00     0.012 C 
ATOM      2  C   UNL     1      -0.303   0.221  -0.446  1.00  0.00     0.009 C 
ENDROOT
BRANCH   1   3
ATOM      3  C   UNL     1       2.026  -0.215   0.203  1.00  0.00     0.017 A 
ATOM      4  C   UNL     1       4.162   0.690   0.938  1.00  0.00     0.047 A 
ATOM      5  C   UNL     1       2.779   0.561   1.096  1.00  0.00     0.016 A 
ATOM      6  C   UNL     1       4.794   0.037  -0.115  1.00  0.00     0.119 A 
ATOM      7  C   UNL     1       4.069  -0.743  -1.007  1.00  0.00     0.092 A 
ATOM      8  C   UNL     1       2.691  -0.871  -0.845  1.00  0.00     0.126 A 
BRANCH   6   9
ATOM      9  O   UNL     1       6.141   0.137  -0.304  1.00  0.00    -0.508 OA
ATOM     10  H   UNL     1       6.512   0.711   0.385  1.00  0.00     0.293 HD
ENDBRANCH   6   9
BRANCH   8  11
ATOM     11  O   UNL     1       2.045  -1.671  -1.749  1.00  0.00    -0.507 OA
ATOM     12  H   UNL     1       1.110  -1.731  -1.491  1.00  0.00     0.293 HD
ENDBRANCH   8  11
ENDBRANCH   1   3
BRANCH   2  13
ATOM     13  C   UNL     1      -1.762   0.183  -0.271  1.00  0.00    -0.018 A 
ATOM     14  C   UNL     1      -2.533   1.225  -0.804  1.00  0.00     0.054 A 
ATOM     15  C   UNL     1      -2.419  -0.883   0.359  1.00  0.00     0.054 A 
ATOM     16  C   UNL     1      -3.921   1.207  -0.682  1.00  0.00     0.119 A 
ATOM     17  C   UNL     1      -3.809  -0.884   0.471  1.00  0.00     0.119 A 
ATOM     18  C   UNL     1      -4.573   0.158  -0.044  1.00  0.00     0.092 A 
BRANCH  16  19
ATOM     19  O   UNL     1      -4.613   2.256  -1.215  1.00  0.00    -0.508 OA
ATOM     20  H   UNL     1      -5.562   2.120  -1.065  1.00  0.00     0.293 HD
ENDBRANCH  16  19
BRANCH  17  21
ATOM     21  O   UNL     1      -4.388  -1.947   1.100  1.00  0.00    -0.508 OA
ATOM     22  H   UNL     1      -5.352  -1.828   1.104  1.00  0.00     0.293 HD
ENDBRANCH  17  21
ENDBRANCH   2  13
TORSDOF 6
