REMARK SMILES Oc1cc(O)c2c(c1)O[C@H](c1ccc(O)c(O)c1)[C@H](O)[C@H]2c1c(O)cc(O)c2c1O[C@H](c1ccc(O)c(O)c1)[C@H](O)C2
REMARK SMILES IDX 42 1 40 2 31 3 30 4 29 5 28 6 26 7 25 8 23 9 22 10 41 11
REMARK SMILES IDX 32 13 39 14 33 15 37 16 34 17 35 18 38 19 36 21 27 23 21 25
REMARK SMILES IDX 19 26 6 27 10 28 4 29 7 30 9 31 3 32 8 33 2 34 20 35 11 37
REMARK SMILES IDX 18 38 12 39 16 40 13 41 14 42 17 43 15 45 5 47 1 49 24 51
REMARK H PARENT 41 12 38 20 36 22 27 24 20 36 17 44 15 46 5 48 1 50 24 52
ROOT
ATOM      1  C   UNL     1       3.932   1.777  -0.896  1.00  0.00     0.079 C 
ATOM      2  C   UNL     1       3.440   1.086  -2.162  1.00  0.00     0.164 C 
ATOM      3  C   UNL     1       2.469  -0.049  -1.780  1.00  0.00     0.232 C 
ATOM      4  O   UNL     1       1.310   0.557  -1.164  1.00  0.00    -0.482 OA
ATOM      5  C   UNL     1       1.540   1.457  -0.145  1.00  0.00     0.135 A 
ATOM      6  C   UNL     1       2.797   2.067   0.044  1.00  0.00     0.039 A 
ATOM      7  C   UNL     1       2.950   2.956   1.114  1.00  0.00     0.126 A 
ATOM      8  C   UNL     1       1.878   3.290   1.934  1.00  0.00     0.093 A 
ATOM      9  C   UNL     1       0.633   2.709   1.710  1.00  0.00     0.126 A 
ATOM     10  C   UNL     1       0.437   1.772   0.685  1.00  0.00     0.047 A 
ENDROOT
BRANCH   2  11
ATOM     11  O   UNL     1       4.534   0.669  -2.978  1.00  0.00    -0.389 OA
ATOM     12  H   UNL     1       4.934   1.472  -3.355  1.00  0.00     0.211 HD
ENDBRANCH   2  11
BRANCH   3  13
ATOM     13  C   UNL     1       2.978  -1.229  -0.944  1.00  0.00    -0.001 A 
ATOM     14  C   UNL     1       2.078  -1.936  -0.125  1.00  0.00     0.057 A 
ATOM     15  C   UNL     1       4.308  -1.687  -0.997  1.00  0.00     0.012 A 
ATOM     16  C   UNL     1       2.517  -2.983   0.674  1.00  0.00     0.157 A 
ATOM     17  C   UNL     1       4.741  -2.765  -0.214  1.00  0.00     0.050 A 
ATOM     18  C   UNL     1       3.840  -3.400   0.629  1.00  0.00     0.157 A 
BRANCH  16  19
ATOM     19  O   UNL     1       1.636  -3.591   1.526  1.00  0.00    -0.504 OA
ATOM     20  H   UNL     1       2.158  -4.317   1.924  1.00  0.00     0.293 HD
ENDBRANCH  16  19
BRANCH  18  21
ATOM     21  O   UNL     1       4.208  -4.444   1.431  1.00  0.00    -0.504 OA
ATOM     22  H   UNL     1       5.153  -4.619   1.280  1.00  0.00     0.293 HD
ENDBRANCH  18  21
ENDBRANCH   3  13
BRANCH   7  23
ATOM     23  O   UNL     1       4.141   3.559   1.409  1.00  0.00    -0.507 OA
ATOM     24  H   UNL     1       4.860   3.043   1.012  1.00  0.00     0.293 HD
ENDBRANCH   7  23
BRANCH  10  25
ATOM     25  C   UNL     1      -0.929   1.112   0.446  1.00  0.00     0.097 C 
ATOM     26  C   UNL     1      -1.884   2.146  -0.196  1.00  0.00     0.172 C 
ATOM     27  C   UNL     1      -1.573   0.452   1.663  1.00  0.00     0.047 A 
ATOM     28  C   UNL     1      -3.335   1.622  -0.169  1.00  0.00     0.233 C 
ATOM     29  C   UNL     1      -0.880  -0.454   2.482  1.00  0.00     0.126 A 
ATOM     30  C   UNL     1      -2.924   0.686   1.964  1.00  0.00     0.131 A 
ATOM     31  O   UNL     1      -3.754   1.473   1.203  1.00  0.00    -0.482 OA
ATOM     32  C   UNL     1      -1.480  -1.055   3.588  1.00  0.00     0.092 A 
ATOM     33  C   UNL     1      -3.530   0.111   3.086  1.00  0.00     0.093 A 
ATOM     34  C   UNL     1      -2.800  -0.756   3.889  1.00  0.00     0.122 A 
BRANCH  26  35
ATOM     35  O   UNL     1      -1.471   2.529  -1.517  1.00  0.00    -0.388 OA
ATOM     36  H   UNL     1      -2.015   3.291  -1.781  1.00  0.00     0.211 HD
ENDBRANCH  26  35
BRANCH  28  37
ATOM     37  C   UNL     1      -3.738   0.395  -0.994  1.00  0.00    -0.001 A 
ATOM     38  C   UNL     1      -2.966  -0.105  -2.054  1.00  0.00     0.057 A 
ATOM     39  C   UNL     1      -4.974  -0.236  -0.723  1.00  0.00     0.012 A 
ATOM     40  C   UNL     1      -3.406  -1.206  -2.781  1.00  0.00     0.157 A 
ATOM     41  C   UNL     1      -5.410  -1.346  -1.456  1.00  0.00     0.050 A 
ATOM     42  C   UNL     1      -4.614  -1.827  -2.484  1.00  0.00     0.157 A 
BRANCH  40  43
ATOM     43  O   UNL     1      -2.635  -1.679  -3.805  1.00  0.00    -0.504 OA
ATOM     44  H   UNL     1      -3.129  -2.451  -4.144  1.00  0.00     0.293 HD
ENDBRANCH  40  43
BRANCH  42  45
ATOM     45  O   UNL     1      -4.980  -2.907  -3.238  1.00  0.00    -0.504 OA
ATOM     46  H   UNL     1      -5.821  -3.246  -2.886  1.00  0.00     0.293 HD
ENDBRANCH  42  45
ENDBRANCH  28  37
BRANCH  29  47
ATOM     47  O   UNL     1       0.422  -0.754   2.207  1.00  0.00    -0.507 OA
ATOM     48  H   UNL     1       0.597  -1.684   2.445  1.00  0.00     0.293 HD
ENDBRANCH  29  47
BRANCH  34  49
ATOM     49  O   UNL     1      -3.356  -1.347   4.986  1.00  0.00    -0.508 OA
ATOM     50  H   UNL     1      -4.269  -1.030   5.076  1.00  0.00     0.293 HD
ENDBRANCH  34  49
ENDBRANCH  10  25
BRANCH   9  51
ATOM     51  O   UNL     1      -0.420   3.076   2.503  1.00  0.00    -0.507 OA
ATOM     52  H   UNL     1      -0.067   3.488   3.308  1.00  0.00     0.293 HD
ENDBRANCH   9  51
TORSDOF 13
