REMARK SMILES O=c1c(-c2ccc(O)cc2)coc2c([C@@H]3O[C@H](CO)[C@@H](O)[C@H](O)[C@H]3O)c(O)ccc12
REMARK SMILES IDX 3 1 11 2 12 3 13 4 30 5 2 6 1 7 29 8 28 9 26 10 14 11 4 12
REMARK SMILES IDX 5 13 6 14 7 15 10 16 9 17 8 18 15 20 24 21 16 22 22 23 17 24
REMARK SMILES IDX 20 25 25 26 23 28 18 30 19 31 21 33 27 35
REMARK H PARENT 8 19 25 27 23 29 19 32 21 34 27 36
ROOT
ATOM      1  C   UNL     1       2.705  -0.069   0.164  1.00  0.00     0.065 C 
ATOM      2  C   UNL     1       1.523  -0.652  -0.085  1.00  0.00     0.208 C 
ATOM      3  O   UNL     1       0.278  -0.116   0.127  1.00  0.00    -0.463 OA
ATOM      4  C   UNL     1       0.184   1.135   0.686  1.00  0.00     0.147 A 
ATOM      5  C   UNL     1       1.327   1.890   0.965  1.00  0.00     0.066 A 
ATOM      6  C   UNL     1       2.662   1.316   0.706  1.00  0.00     0.200 C 
ATOM      7  O   UNL     1       3.673   1.973   0.933  1.00  0.00    -0.288 OA
ATOM      8  C   UNL     1       1.216   3.187   1.476  1.00  0.00     0.020 A 
ATOM      9  C   UNL     1      -0.044   3.741   1.687  1.00  0.00     0.047 A 
ATOM     10  C   UNL     1      -1.181   2.984   1.408  1.00  0.00     0.125 A 
ATOM     11  C   UNL     1      -1.099   1.660   0.940  1.00  0.00     0.069 A 
ENDROOT
BRANCH   1  12
ATOM     12  C   UNL     1       3.968  -0.773  -0.129  1.00  0.00    -0.011 A 
ATOM     13  C   UNL     1       4.178  -2.092   0.306  1.00  0.00     0.013 A 
ATOM     14  C   UNL     1       5.373  -2.756   0.021  1.00  0.00     0.047 A 
ATOM     15  C   UNL     1       6.369  -2.104  -0.695  1.00  0.00     0.115 A 
ATOM     16  C   UNL     1       4.992  -0.135  -0.847  1.00  0.00     0.013 A 
ATOM     17  C   UNL     1       6.190  -0.797  -1.131  1.00  0.00     0.047 A 
BRANCH  15  18
ATOM     18  O   UNL     1       7.521  -2.787  -0.949  1.00  0.00    -0.508 OA
ATOM     19  H   UNL     1       8.131  -2.198  -1.422  1.00  0.00     0.293 HD
ENDBRANCH  15  18
ENDBRANCH   1  12
BRANCH  11  20
ATOM     20  C   UNL     1      -2.382   0.874   0.680  1.00  0.00     0.188 C 
ATOM     21  C   UNL     1      -2.849   1.082  -0.783  1.00  0.00     0.179 C 
ATOM     22  O   UNL     1      -2.178  -0.511   0.963  1.00  0.00    -0.362 OA
ATOM     23  C   UNL     1      -3.739  -0.079  -1.273  1.00  0.00     0.177 C 
ATOM     24  C   UNL     1      -3.391  -1.282   0.949  1.00  0.00     0.176 C 
ATOM     25  C   UNL     1      -4.421  -0.799  -0.100  1.00  0.00     0.177 C 
BRANCH  21  26
ATOM     26  O   UNL     1      -3.582   2.314  -0.930  1.00  0.00    -0.387 OA
ATOM     27  H   UNL     1      -3.239   2.940  -0.261  1.00  0.00     0.211 HD
ENDBRANCH  21  26
BRANCH  23  28
ATOM     28  O   UNL     1      -2.984  -1.016  -2.047  1.00  0.00    -0.387 OA
ATOM     29  H   UNL     1      -2.652  -0.542  -2.830  1.00  0.00     0.211 HD
ENDBRANCH  23  28
BRANCH  24  30
ATOM     30  C   UNL     1      -2.993  -2.748   0.733  1.00  0.00     0.191 C 
BRANCH  30  31
ATOM     31  O   UNL     1      -4.091  -3.632   0.943  1.00  0.00    -0.394 OA
ATOM     32  H   UNL     1      -4.336  -3.569   1.883  1.00  0.00     0.210 HD
ENDBRANCH  30  31
ENDBRANCH  24  30
BRANCH  25  33
ATOM     33  O   UNL     1      -5.334   0.106   0.552  1.00  0.00    -0.388 OA
ATOM     34  H   UNL     1      -5.935   0.456  -0.130  1.00  0.00     0.211 HD
ENDBRANCH  25  33
ENDBRANCH  11  20
BRANCH  10  35
ATOM     35  O   UNL     1      -2.418   3.554   1.545  1.00  0.00    -0.507 OA
ATOM     36  H   UNL     1      -2.326   4.392   2.033  1.00  0.00     0.293 HD
ENDBRANCH  10  35
TORSDOF 9
