REMARK SMILES COc1cc(O)c2c(O)c(C(C)=O)c(C)cc2c1
REMARK SMILES IDX 15 1 14 2 16 3 17 4 18 5 3 6 4 7 5 8 7 9 8 10 10 11 11 12
REMARK SMILES IDX 13 13 12 14 9 15 2 17 1 18 6 19
REMARK H PARENT 9 16 6 20
ROOT
ATOM      1  C   UNL     1      -2.062   2.862  -0.724  1.00  0.00     0.045 C 
ATOM      2  C   UNL     1      -1.342   1.577  -0.416  1.00  0.00    -0.036 A 
ATOM      3  C   UNL     1       0.061   1.552  -0.479  1.00  0.00     0.013 A 
ATOM      4  C   UNL     1       0.799   0.390  -0.197  1.00  0.00    -0.007 A 
ATOM      5  C   UNL     1       2.206   0.411  -0.280  1.00  0.00     0.055 A 
ATOM      6  C   UNL     1       2.964  -0.726  -0.003  1.00  0.00     0.123 A 
ATOM      7  C   UNL     1       2.317  -1.902   0.363  1.00  0.00     0.093 A 
ATOM      8  C   UNL     1       0.926  -1.934   0.450  1.00  0.00     0.130 A 
ATOM      9  C   UNL     1       0.126  -0.797   0.172  1.00  0.00     0.066 A 
ATOM     10  C   UNL     1      -1.294  -0.762   0.245  1.00  0.00     0.138 A 
ATOM     11  C   UNL     1      -2.021   0.403  -0.046  1.00  0.00     0.063 A 
ENDROOT
BRANCH  11  12
ATOM     12  C   UNL     1      -3.506   0.405   0.057  1.00  0.00     0.163 C 
ATOM     13  O   UNL     1      -4.077   1.302   0.674  1.00  0.00    -0.294 OA
ATOM     14  C   UNL     1      -4.275  -0.689  -0.636  1.00  0.00     0.093 C 
ENDBRANCH  11  12
BRANCH  10  15
ATOM     15  O   UNL     1      -1.991  -1.885   0.630  1.00  0.00    -0.506 OA
ATOM     16  H   UNL     1      -1.328  -2.582   0.819  1.00  0.00     0.293 HD
ENDBRANCH  10  15
BRANCH   6  17
ATOM     17  O   UNL     1       4.328  -0.818  -0.053  1.00  0.00    -0.497 OA
ATOM     18  C   UNL     1       5.044   0.359  -0.407  1.00  0.00     0.278 C 
ENDBRANCH   6  17
BRANCH   8  19
ATOM     19  O   UNL     1       0.307  -3.108   0.819  1.00  0.00    -0.507 OA
ATOM     20  H   UNL     1       0.997  -3.778   0.978  1.00  0.00     0.293 HD
ENDBRANCH   8  19
TORSDOF 4
