REMARK SMILES C[C@@H]1CC[C@]2(C(=O)O)CC[C@]3(C)C(=CC[C@@H]4[C@@]5(C)C[C@@H](O)[C@H](O)C(C)(C)[C@@H]5CC[C@]43C)[C@@H]2[C@]1(C)O
REMARK SMILES IDX 1 1 2 2 3 3 4 4 5 5 9 6 10 7 11 8 13 9 14 10 15 11 16 12
REMARK SMILES IDX 30 13 29 14 28 15 27 16 17 17 19 18 20 19 22 20 24 21 25 22
REMARK SMILES IDX 26 23 18 24 31 25 32 26 33 27 34 28 12 29 35 30 6 32 7 33
REMARK SMILES IDX 8 34 21 36 23 38
REMARK H PARENT 35 31 8 35 21 37 23 39
ROOT
ATOM      1  C   UNL     1      -6.135   1.254   2.672  1.00  0.00     0.011 C 
ATOM      2  C   UNL     1      -5.328   0.311   1.768  1.00  0.00     0.018 C 
ATOM      3  C   UNL     1      -5.226  -1.055   2.468  1.00  0.00     0.007 C 
ATOM      4  C   UNL     1      -4.070  -1.925   1.973  1.00  0.00     0.020 C 
ATOM      5  C   UNL     1      -3.656  -1.656   0.509  1.00  0.00     0.077 C 
ATOM      6  C   UNL     1      -2.512  -2.609   0.100  1.00  0.00     0.020 C 
ATOM      7  C   UNL     1      -1.206  -2.310   0.823  1.00  0.00     0.013 C 
ATOM      8  C   UNL     1      -0.666  -0.864   0.594  1.00  0.00    -0.006 C 
ATOM      9  C   UNL     1      -1.757   0.079   0.013  1.00  0.00    -0.061 C 
ATOM     10  C   UNL     1      -1.429   1.040  -0.878  1.00  0.00    -0.026 C 
ATOM     11  C   UNL     1      -0.058   1.364  -1.384  1.00  0.00     0.032 C 
ATOM     12  C   UNL     1       1.081   0.600  -0.680  1.00  0.00     0.006 C 
ATOM     13  C   UNL     1       0.647  -0.890  -0.397  1.00  0.00    -0.020 C 
ATOM     14  C   UNL     1       1.840  -1.659   0.242  1.00  0.00     0.008 C 
ATOM     15  C   UNL     1       3.179  -1.469  -0.470  1.00  0.00     0.005 C 
ATOM     16  C   UNL     1       3.573   0.019  -0.510  1.00  0.00     0.004 C 
ATOM     17  C   UNL     1       2.525   0.862  -1.312  1.00  0.00    -0.023 C 
ATOM     18  C   UNL     1       2.859   2.392  -1.153  1.00  0.00     0.042 C 
ATOM     19  C   UNL     1       4.279   2.728  -0.674  1.00  0.00     0.144 C 
ATOM     20  C   UNL     1       5.353   1.777  -1.223  1.00  0.00     0.149 C 
ATOM     21  C   UNL     1       5.088   0.272  -0.875  1.00  0.00    -0.003 C 
ATOM     22  C   UNL     1       5.940  -0.068   0.385  1.00  0.00     0.014 C 
ATOM     23  C   UNL     1       5.613  -0.657  -1.994  1.00  0.00     0.014 C 
ATOM     24  C   UNL     1       2.572   0.547  -2.828  1.00  0.00     0.012 C 
ATOM     25  C   UNL     1       0.272  -1.634  -1.715  1.00  0.00     0.012 C 
ATOM     26  C   UNL     1      -3.264  -0.149   0.309  1.00  0.00     0.064 C 
ATOM     27  C   UNL     1      -3.923   0.839   1.366  1.00  0.00     0.072 C 
ATOM     28  C   UNL     1      -4.015   2.274   0.812  1.00  0.00     0.043 C 
ATOM     29  C   UNL     1      -0.302  -0.319   2.005  1.00  0.00     0.017 C 
ENDROOT
BRANCH  27  30
ATOM     30  O   UNL     1      -3.141   0.916   2.560  1.00  0.00    -0.389 OA
ATOM     31  H   UNL     1      -2.320   1.389   2.336  1.00  0.00     0.211 HD
ENDBRANCH  27  30
BRANCH   5  32
ATOM     32  C   UNL     1      -4.830  -2.048  -0.403  1.00  0.00     0.310 C 
ATOM     33  O   UNL     1      -5.842  -2.651  -0.082  1.00  0.00    -0.252 OA
BRANCH  32  34
ATOM     34  O   UNL     1      -4.656  -1.715  -1.698  1.00  0.00    -0.481 OA
ATOM     35  H   UNL     1      -5.453  -2.073  -2.142  1.00  0.00     0.296 HD
ENDBRANCH  32  34
ENDBRANCH   5  32
BRANCH  19  36
ATOM     36  O   UNL     1       4.323   2.746   0.754  1.00  0.00    -0.390 OA
ATOM     37  H   UNL     1       3.664   3.390   1.064  1.00  0.00     0.211 HD
ENDBRANCH  19  36
BRANCH  20  38
ATOM     38  O   UNL     1       5.479   1.980  -2.633  1.00  0.00    -0.390 OA
ATOM     39  H   UNL     1       5.879   2.857  -2.766  1.00  0.00     0.211 HD
ENDBRANCH  20  38
TORSDOF 5
