REMARK SMILES O=c1cc(-c2ccc(O)cc2)oc2c([C@@H]3O[C@H](CO)[C@@H](O)[C@H](O)[C@H]3O)c(O)cc(O)c12
REMARK SMILES IDX 4 1 3 2 2 3 1 4 31 5 13 6 12 7 14 8 26 9 28 10 29 11 5 12
REMARK SMILES IDX 6 13 7 14 8 15 11 16 10 17 9 18 15 20 24 21 16 22 22 23
REMARK SMILES IDX 17 24 20 25 25 26 23 28 18 30 19 31 21 33 30 35 27 37
REMARK H PARENT 9 19 25 27 23 29 19 32 21 34 30 36 27 38
ROOT
ATOM      1  C   UNL     1       2.180   0.863  -0.637  1.00  0.00     0.138 C 
ATOM      2  C   UNL     1       2.914   1.983  -0.677  1.00  0.00     0.100 C 
ATOM      3  C   UNL     1       2.297   3.243  -0.251  1.00  0.00     0.197 C 
ATOM      4  O   UNL     1       2.917   4.301  -0.274  1.00  0.00    -0.289 OA
ATOM      5  C   UNL     1       0.896   3.194   0.188  1.00  0.00     0.107 A 
ATOM      6  C   UNL     1       0.246   1.956   0.224  1.00  0.00     0.152 A 
ATOM      7  O   UNL     1       0.872   0.804  -0.187  1.00  0.00    -0.455 OA
ATOM      8  C   UNL     1      -1.095   1.866   0.648  1.00  0.00     0.069 A 
ATOM      9  C   UNL     1      -1.768   3.064   0.947  1.00  0.00     0.128 A 
ATOM     10  C   UNL     1      -1.124   4.300   0.913  1.00  0.00     0.093 A 
ATOM     11  C   UNL     1       0.213   4.360   0.545  1.00  0.00     0.134 A 
ENDROOT
BRANCH   1  12
ATOM     12  C   UNL     1       2.725  -0.440  -1.062  1.00  0.00     0.018 A 
ATOM     13  C   UNL     1       3.500  -0.575  -2.225  1.00  0.00     0.016 A 
ATOM     14  C   UNL     1       3.972  -1.830  -2.623  1.00  0.00     0.047 A 
ATOM     15  C   UNL     1       3.663  -2.954  -1.868  1.00  0.00     0.115 A 
ATOM     16  C   UNL     1       2.432  -1.590  -0.315  1.00  0.00     0.016 A 
ATOM     17  C   UNL     1       2.896  -2.846  -0.715  1.00  0.00     0.047 A 
BRANCH  15  18
ATOM     18  O   UNL     1       4.131  -4.159  -2.299  1.00  0.00    -0.508 OA
ATOM     19  H   UNL     1       3.806  -4.846  -1.693  1.00  0.00     0.293 HD
ENDBRANCH  15  18
ENDBRANCH   1  12
BRANCH   8  20
ATOM     20  C   UNL     1      -1.844   0.541   0.741  1.00  0.00     0.188 C 
ATOM     21  C   UNL     1      -2.420   0.142  -0.641  1.00  0.00     0.179 C 
ATOM     22  O   UNL     1      -1.000  -0.497   1.256  1.00  0.00    -0.362 OA
ATOM     23  C   UNL     1      -2.545  -1.390  -0.765  1.00  0.00     0.177 C 
ATOM     24  C   UNL     1      -1.763  -1.663   1.645  1.00  0.00     0.176 C 
ATOM     25  C   UNL     1      -2.856  -2.022   0.607  1.00  0.00     0.177 C 
BRANCH  21  26
ATOM     26  O   UNL     1      -3.716   0.732  -0.848  1.00  0.00    -0.387 OA
ATOM     27  H   UNL     1      -3.698   1.623  -0.444  1.00  0.00     0.211 HD
ENDBRANCH  21  26
BRANCH  23  28
ATOM     28  O   UNL     1      -1.344  -1.960  -1.299  1.00  0.00    -0.387 OA
ATOM     29  H   UNL     1      -1.232  -1.610  -2.203  1.00  0.00     0.211 HD
ENDBRANCH  23  28
BRANCH  24  30
ATOM     30  C   UNL     1      -0.772  -2.814   1.887  1.00  0.00     0.191 C 
BRANCH  30  31
ATOM     31  O   UNL     1      -0.237  -3.384   0.696  1.00  0.00    -0.394 OA
ATOM     32  H   UNL     1      -0.339  -2.728  -0.028  1.00  0.00     0.210 HD
ENDBRANCH  30  31
ENDBRANCH  24  30
BRANCH  25  33
ATOM     33  O   UNL     1      -4.116  -1.540   1.105  1.00  0.00    -0.388 OA
ATOM     34  H   UNL     1      -4.719  -1.421   0.349  1.00  0.00     0.211 HD
ENDBRANCH  25  33
ENDBRANCH   8  20
BRANCH  11  35
ATOM     35  O   UNL     1       0.789   5.601   0.529  1.00  0.00    -0.507 OA
ATOM     36  H   UNL     1       1.730   5.501   0.255  1.00  0.00     0.293 HD
ENDBRANCH  11  35
BRANCH   9  37
ATOM     37  O   UNL     1      -3.106   3.011   1.234  1.00  0.00    -0.507 OA
ATOM     38  H   UNL     1      -3.390   3.882   1.568  1.00  0.00     0.293 HD
ENDBRANCH   9  37
TORSDOF 10
