REMARK SMILES C/C=C/C/C=C/CCC(=O)[C@H]1O[C@H]1C(N)=O
REMARK SMILES IDX 7 1 6 2 5 3 4 4 3 5 2 6 1 7 8 8 9 9 10 10 11 11 13 12 12 13
REMARK SMILES IDX 14 14 16 15 15 16
REMARK H PARENT 15 17 15 18
ROOT
ATOM      1  C   UNL     1      -0.326  -0.127  -0.459  1.00  0.00     0.035 C 
ENDROOT
BRANCH   1   2
ATOM      2  C   UNL     1       0.852   0.492   0.241  1.00  0.00    -0.031 C 
ATOM      3  C   UNL     1       2.117   0.401  -0.201  1.00  0.00    -0.027 C 
BRANCH   3   4
ATOM      4  C   UNL     1       3.302   1.008   0.496  1.00  0.00     0.054 C 
BRANCH   4   5
ATOM      5  C   UNL     1       4.310   0.021   1.024  1.00  0.00    -0.027 C 
ATOM      6  C   UNL     1       4.214  -1.319   1.058  1.00  0.00    -0.034 C 
ATOM      7  C   UNL     1       5.273  -2.217   1.611  1.00  0.00     0.035 C 
ENDBRANCH   4   5
ENDBRANCH   3   4
ENDBRANCH   1   2
BRANCH   1   8
ATOM      8  C   UNL     1      -1.288   0.942  -0.967  1.00  0.00     0.083 C 
BRANCH   8   9
ATOM      9  C   UNL     1      -2.515   0.320  -1.594  1.00  0.00     0.165 C 
ATOM     10  O   UNL     1      -2.538  -0.793  -2.105  1.00  0.00    -0.297 OA
BRANCH   9  11
ATOM     11  C   UNL     1      -3.721   1.186  -1.595  1.00  0.00     0.224 C 
ATOM     12  C   UNL     1      -4.668   1.166  -0.421  1.00  0.00     0.244 C 
ATOM     13  O   UNL     1      -4.982   0.487  -1.646  1.00  0.00    -0.351 OA
BRANCH  12  14
ATOM     14  C   UNL     1      -4.370   0.309   0.746  1.00  0.00     0.249 C 
ATOM     15  O   UNL     1      -3.731   0.746   1.691  1.00  0.00    -0.272 OA
ATOM     16  N   UNL     1      -4.828  -0.970   0.683  1.00  0.00    -0.367 N 
ATOM     17  H   UNL     1      -4.632  -1.605   1.443  1.00  0.00     0.159 HD
ATOM     18  H   UNL     1      -5.283  -1.320  -0.152  1.00  0.00     0.159 HD
ENDBRANCH  12  14
ENDBRANCH   9  11
ENDBRANCH   8   9
ENDBRANCH   1   8
TORSDOF 7
