REMARK SMILES CC(C)c1cc(Oc2c(Cl)cc(-n3nc(C#N)c(=O)[nH]c3=O)cc2Cl)n[nH]c1=O
REMARK SMILES IDX 7 1 6 2 4 3 5 4 28 5 27 6 29 7 26 8 2 10 1 11 3 12 8 13
REMARK SMILES IDX 24 14 9 15 23 16 11 17 12 18 25 19 10 20 13 21 21 22 14 23
REMARK SMILES IDX 22 24 20 25 15 26 18 27 16 28 19 29 17 30
REMARK H PARENT 27 9 20 31
ROOT
ATOM      1  O   UNL     1      -0.988   0.566  -1.028  1.00  0.00    -0.434 OA
ENDROOT
BRANCH   1   2
ATOM      2  C   UNL     1      -1.754   0.095   0.024  1.00  0.00     0.237 C 
ATOM      3  C   UNL     1      -4.073  -0.280   0.532  1.00  0.00     0.027 C 
ATOM      4  C   UNL     1      -3.168   0.148  -0.363  1.00  0.00     0.080 C 
ATOM      5  C   UNL     1      -3.577  -0.761   1.861  1.00  0.00     0.267 C 
ATOM      6  N   UNL     1      -2.216  -0.740   2.056  1.00  0.00    -0.240 N 
ATOM      7  O   UNL     1      -4.344  -1.155   2.734  1.00  0.00    -0.268 OA
ATOM      8  N   UNL     1      -1.282  -0.318   1.154  1.00  0.00    -0.134 NA
ATOM      9  H   UNL     1      -1.871  -1.066   2.953  1.00  0.00     0.194 HD
BRANCH   3  10
ATOM     10  C   UNL     1      -5.577  -0.293   0.327  1.00  0.00     0.019 C 
ATOM     11  C   UNL     1      -6.053  -1.701  -0.044  1.00  0.00     0.012 C 
ATOM     12  C   UNL     1      -6.083   0.712  -0.716  1.00  0.00     0.012 C 
ENDBRANCH   3  10
ENDBRANCH   1   2
BRANCH   1  13
ATOM     13  C   UNL     1       0.388   0.562  -0.770  1.00  0.00     0.166 A 
ATOM     14  C   UNL     1       1.000   1.687  -0.223  1.00  0.00     0.087 A 
ATOM     15  C   UNL     1       1.157  -0.549  -1.103  1.00  0.00     0.087 A 
ATOM     16  C   UNL     1       2.380   1.690   0.023  1.00  0.00     0.053 A 
ATOM     17  C   UNL     1       2.534  -0.541  -0.855  1.00  0.00     0.053 A 
ATOM     18  C   UNL     1       3.180   0.576  -0.282  1.00  0.00     0.073 A 
ATOM     19  Cl  UNL     1       0.088   3.104   0.157  1.00  0.00    -0.080 Cl
ATOM     20  Cl  UNL     1       0.452  -1.947  -1.829  1.00  0.00    -0.080 Cl
BRANCH  18  21
ATOM     21  N   UNL     1       4.605   0.537  -0.039  1.00  0.00    -0.181 N 
ATOM     22  C   UNL     1       5.346   1.597   0.522  1.00  0.00     0.349 C 
ATOM     23  N   UNL     1       5.191  -0.668  -0.415  1.00  0.00    -0.146 NA
ATOM     24  O   UNL     1       4.923   2.694   0.876  1.00  0.00    -0.246 OA
ATOM     25  N   UNL     1       6.690   1.370   0.683  1.00  0.00    -0.270 N 
ATOM     26  C   UNL     1       6.466  -0.827  -0.241  1.00  0.00     0.226 C 
ATOM     27  C   UNL     1       7.342   0.224   0.346  1.00  0.00     0.290 C 
ATOM     28  C   UNL     1       6.944  -2.114  -0.671  1.00  0.00     0.127 C 
ATOM     29  O   UNL     1       8.537   0.037   0.495  1.00  0.00    -0.266 OA
ATOM     30  N   UNL     1       7.320  -3.156  -1.024  1.00  0.00    -0.190 NA
ATOM     31  H   UNL     1       7.228   2.123   1.086  1.00  0.00     0.175 HD
ENDBRANCH  18  21
ENDBRANCH   1  13
TORSDOF 4
