REMARK SMILES Cc1cc(OCC(=O)O)cc(C)c1Cc1ccc(O)c(C(C)C)c1
REMARK SMILES IDX 1 1 2 2 3 3 4 4 10 5 11 6 13 7 12 8 14 9 15 10 24 11 16 12
REMARK SMILES IDX 20 13 17 14 18 15 21 16 22 17 23 18 19 19 5 21 6 22 7 23
REMARK SMILES IDX 8 24 9 25
REMARK H PARENT 19 20 9 26
ROOT
ATOM      1  C   UNL     1       0.222   1.047   2.049  1.00  0.00     0.045 C 
ATOM      2  C   UNL     1       1.382   0.752   1.133  1.00  0.00    -0.044 A 
ATOM      3  C   UNL     1       2.616   0.424   1.719  1.00  0.00     0.050 A 
ATOM      4  C   UNL     1       3.735   0.120   0.945  1.00  0.00     0.120 A 
ATOM      5  C   UNL     1       3.619   0.132  -0.441  1.00  0.00     0.050 A 
ATOM      6  C   UNL     1       2.393   0.442  -1.065  1.00  0.00    -0.044 A 
ATOM      7  C   UNL     1       1.257   0.757  -0.277  1.00  0.00    -0.038 A 
ATOM      8  C   UNL     1       2.347   0.437  -2.572  1.00  0.00     0.045 C 
ENDROOT
BRANCH   7   9
ATOM      9  C   UNL     1      -0.078   1.091  -0.932  1.00  0.00     0.071 C 
BRANCH   9  10
ATOM     10  C   UNL     1      -1.153   0.030  -0.805  1.00  0.00    -0.043 A 
ATOM     11  C   UNL     1      -2.475   0.409  -0.508  1.00  0.00     0.011 A 
ATOM     12  C   UNL     1      -0.883  -1.321  -1.031  1.00  0.00     0.008 A 
ATOM     13  C   UNL     1      -3.525  -0.531  -0.405  1.00  0.00    -0.003 A 
ATOM     14  C   UNL     1      -1.902  -2.266  -0.933  1.00  0.00     0.047 A 
ATOM     15  C   UNL     1      -3.204  -1.877  -0.619  1.00  0.00     0.119 A 
BRANCH  13  16
ATOM     16  C   UNL     1      -4.910   0.007  -0.075  1.00  0.00     0.017 C 
ATOM     17  C   UNL     1      -5.402  -0.441   1.303  1.00  0.00     0.012 C 
ATOM     18  C   UNL     1      -5.939  -0.271  -1.175  1.00  0.00     0.012 C 
ENDBRANCH  13  16
BRANCH  15  19
ATOM     19  O   UNL     1      -4.101  -2.904  -0.547  1.00  0.00    -0.508 OA
ATOM     20  H   UNL     1      -4.954  -2.570  -0.241  1.00  0.00     0.293 HD
ENDBRANCH  15  19
ENDBRANCH   9  10
ENDBRANCH   7   9
BRANCH   4  21
ATOM     21  O   UNL     1       4.860  -0.168   1.667  1.00  0.00    -0.482 OA
BRANCH  21  22
ATOM     22  C   UNL     1       6.059  -0.440   0.961  1.00  0.00     0.351 C 
BRANCH  22  23
ATOM     23  C   UNL     1       6.737   0.770   0.342  1.00  0.00     0.341 C 
ATOM     24  O   UNL     1       7.175   0.839  -0.797  1.00  0.00    -0.248 OA
BRANCH  23  25
ATOM     25  O   UNL     1       6.865   1.812   1.188  1.00  0.00    -0.479 OA
ATOM     26  H   UNL     1       7.291   2.513   0.653  1.00  0.00     0.296 HD
ENDBRANCH  23  25
ENDBRANCH  22  23
ENDBRANCH  21  22
ENDBRANCH   4  21
TORSDOF 8
