REMARK SMILES CCN(CC)S(O)(O)C1CCC([C@H]2CSC(CC3CCCCC3F)N2)CC1
REMARK SMILES IDX 9 1 10 2 11 3 12 4 26 5 27 6 13 7 16 8 15 9 25 10 14 11
REMARK SMILES IDX 17 13 18 14 23 15 19 16 22 17 20 18 21 19 24 20 6 21 7 22
REMARK SMILES IDX 3 24 2 25 1 26 4 27 5 28 8 29
REMARK H PARENT 25 12 7 23 8 30
ROOT
ATOM      1  C03 ZEP A 601       2.056  62.787 167.574  1.00  0.00     0.118 C 
ATOM      2  C04 ZEP A 601       1.052  63.496 168.239  1.00  0.00     0.026 C 
ATOM      3  C05 ZEP A 601       0.736  63.185 169.557  1.00  0.00     0.007 C 
ATOM      4  C06 ZEP A 601       1.448  62.202 170.242  1.00  0.00     0.007 C 
ATOM      5  C20 ZEP A 601       2.434  61.465 169.571  1.00  0.00     0.007 C 
ATOM      6  C21 ZEP A 601       2.743  61.765 168.245  1.00  0.00     0.026 C 
ENDROOT
BRANCH   4   7
ATOM      7  C07 ZEP A 601       1.031  61.784 171.655  1.00  0.00     0.067 C 
ATOM      8  C10 ZEP A 601       0.963  60.281 173.466  1.00  0.00     0.112 C 
ATOM      9  S09 ZEP A 601      -0.158  61.426 173.870  1.00  0.00    -0.141 SA
ATOM     10  N19 ZEP A 601       1.552  60.529 172.232  1.00  0.00    -0.301 NA
ATOM     11  C08 ZEP A 601       0.024  62.342 172.535  1.00  0.00     0.090 C 
ATOM     12  H   UNL     1       1.342  59.749 171.593  1.00  0.00     0.124 HD
BRANCH   8  13
ATOM     13  C11 ZEP A 601       1.401  59.059 174.255  1.00  0.00     0.036 C 
BRANCH  13  14
ATOM     14  C12 ZEP A 601       0.509  57.884 173.890  1.00  0.00     0.026 C 
ATOM     15  C13 ZEP A 601      -0.733  57.799 174.485  1.00  0.00     0.169 C 
ATOM     16  C18 ZEP A 601       0.933  56.915 172.989  1.00  0.00     0.007 C 
ATOM     17  C15 ZEP A 601      -1.582  56.737 174.194  1.00  0.00     0.038 C 
ATOM     18  C17 ZEP A 601       0.096  55.838 172.706  1.00  0.00     0.001 C 
ATOM     19  C16 ZEP A 601      -1.161  55.756 173.296  1.00  0.00     0.003 C 
ATOM     20  F14 ZEP A 601      -1.098  58.800 175.344  1.00  0.00    -0.247 F 
ENDBRANCH  13  14
ENDBRANCH   8  13
ENDBRANCH   4   7
BRANCH   1  21
ATOM     21  S02 ZEP A 601       2.458  63.196 165.831  1.00  0.00    -0.135 S 
BRANCH  21  22
ATOM     22  O01 ZEP A 601       1.271  63.508 165.066  1.00  0.00    -0.285 OA
ATOM     23  H   UNL     1       0.523  63.705 165.684  1.00  0.00     0.243 HD
ENDBRANCH  21  22
BRANCH  21  24
ATOM     24  N22 ZEP A 601       3.617  64.450 165.848  1.00  0.00    -0.207 NA
BRANCH  24  25
ATOM     25  C23 ZEP A 601       3.222  65.770 166.310  1.00  0.00     0.104 C 
ATOM     26  C24 ZEP A 601       2.556  66.574 165.188  1.00  0.00     0.022 C 
ENDBRANCH  24  25
BRANCH  24  27
ATOM     27  C25 ZEP A 601       5.023  64.065 165.796  1.00  0.00     0.104 C 
ATOM     28  C26 ZEP A 601       5.408  63.448 164.444  1.00  0.00     0.022 C 
ENDBRANCH  24  27
ENDBRANCH  21  24
BRANCH  21  29
ATOM     29  O27 ZEP A 601       2.911  62.012 165.104  1.00  0.00    -0.285 OA
ATOM     30  H   UNL     1       3.179  61.311 165.750  1.00  0.00     0.243 HD
ENDBRANCH  21  29
ENDBRANCH   1  21
TORSDOF 9
