REMARK SMILES CC#CC#CC(=O)c1ccccc1
REMARK SMILES IDX 5 1 6 2 7 3 4 4 3 5 2 6 1 7 8 8 9 9 13 10 10 11 12 12 11 13
REMARK H PARENT
ROOT
ATOM      1  C   UNL     1       0.713  -1.172  -0.321  1.00  0.00    -0.009 C 
ATOM      2  C   UNL     1      -0.640  -1.665  -0.223  1.00  0.00     0.236 C 
ATOM      3  O   UNL     1      -0.844  -2.868  -0.310  1.00  0.00    -0.279 OA
ENDROOT
BRANCH   1   4
ATOM      4  C   UNL     1       1.843  -0.773  -0.405  1.00  0.00    -0.007 C 
ATOM      5  C   UNL     1       3.288  -0.256  -0.512  1.00  0.00    -0.015 C 
BRANCH   5   6
ATOM      6  C   UNL     1       4.416   0.148  -0.595  1.00  0.00    -0.093 C 
ATOM      7  C   UNL     1       5.791   0.635  -0.697  1.00  0.00     0.108 C 
ENDBRANCH   5   6
ENDBRANCH   1   4
BRANCH   2   8
ATOM      8  C   UNL     1      -1.746  -0.690  -0.017  1.00  0.00     0.031 A 
ATOM      9  C   UNL     1      -1.526   0.691   0.084  1.00  0.00     0.013 A 
ATOM     10  C   UNL     1      -3.056  -1.184   0.077  1.00  0.00     0.013 A 
ATOM     11  C   UNL     1      -2.603   1.561   0.277  1.00  0.00     0.001 A 
ATOM     12  C   UNL     1      -4.128  -0.311   0.270  1.00  0.00     0.001 A 
ATOM     13  C   UNL     1      -3.901   1.060   0.370  1.00  0.00     0.000 A 
ENDBRANCH   2   8
TORSDOF 3
