REMARK SMILES O=c1c(O[C@@H]2O[C@H](CO)[C@H](O)[C@H](O)[C@H]2O)c(-c2ccc(O)c(O)c2)oc2cc(O)cc(O)c12
REMARK SMILES IDX 4 1 3 2 16 3 25 4 2 5 26 6 1 7 33 8 27 9 31 10 28 11 30 12
REMARK SMILES IDX 17 13 18 14 19 15 20 16 24 17 22 18 21 19 23 21 32 23 29 25
REMARK SMILES IDX 5 27 14 28 6 29 12 30 7 31 10 32 15 33 13 35 8 37 9 38 11 40
REMARK H PARENT 21 20 23 22 32 24 29 26 15 34 13 36 9 39 11 41
ROOT
ATOM      1  O   UNL     1       0.133   0.901   0.606  1.00  0.00    -0.454 OA
ENDROOT
BRANCH   1   2
ATOM      2  C   UNL     1      -0.830  -0.091   0.716  1.00  0.00     0.214 C 
ATOM      3  C   UNL     1      -1.997   0.005   0.053  1.00  0.00     0.180 C 
ATOM      4  O   UNL     1      -3.014  -0.927   0.102  1.00  0.00    -0.452 OA
ATOM      5  C   UNL     1      -0.623  -1.273   1.614  1.00  0.00     0.239 C 
ATOM      6  C   UNL     1      -2.873  -2.014   0.923  1.00  0.00     0.146 A 
ATOM      7  O   UNL     1       0.424  -1.413   2.234  1.00  0.00    -0.285 OA
ATOM      8  C   UNL     1      -1.733  -2.253   1.694  1.00  0.00     0.111 A 
ATOM      9  C   UNL     1      -3.956  -2.898   0.947  1.00  0.00     0.094 A 
ATOM     10  C   UNL     1      -1.691  -3.402   2.497  1.00  0.00     0.134 A 
ATOM     11  C   UNL     1      -3.895  -4.028   1.751  1.00  0.00     0.123 A 
ATOM     12  C   UNL     1      -2.771  -4.288   2.526  1.00  0.00     0.093 A 
BRANCH   3  13
ATOM     13  C   UNL     1      -2.294   1.126  -0.862  1.00  0.00     0.025 A 
ATOM     14  C   UNL     1      -2.219   2.464  -0.432  1.00  0.00     0.016 A 
ATOM     15  C   UNL     1      -2.492   3.519  -1.310  1.00  0.00     0.051 A 
ATOM     16  C   UNL     1      -2.850   3.232  -2.620  1.00  0.00     0.157 A 
ATOM     17  C   UNL     1      -2.668   0.858  -2.186  1.00  0.00     0.062 A 
ATOM     18  C   UNL     1      -2.939   1.911  -3.050  1.00  0.00     0.158 A 
BRANCH  16  19
ATOM     19  O   UNL     1      -3.126   4.215  -3.527  1.00  0.00    -0.504 OA
ATOM     20  H   UNL     1      -3.010   5.076  -3.088  1.00  0.00     0.293 HD
ENDBRANCH  16  19
BRANCH  18  21
ATOM     21  O   UNL     1      -3.292   1.637  -4.340  1.00  0.00    -0.504 OA
ATOM     22  H   UNL     1      -3.429   2.514  -4.750  1.00  0.00     0.293 HD
ENDBRANCH  18  21
ENDBRANCH   3  13
BRANCH  10  23
ATOM     23  O   UNL     1      -0.597  -3.685   3.265  1.00  0.00    -0.507 OA
ATOM     24  H   UNL     1      -0.749  -4.491   3.784  1.00  0.00     0.293 HD
ENDBRANCH  10  23
BRANCH  11  25
ATOM     25  O   UNL     1      -4.924  -4.919   1.809  1.00  0.00    -0.508 OA
ATOM     26  H   UNL     1      -5.641  -4.619   1.225  1.00  0.00     0.293 HD
ENDBRANCH  11  25
ENDBRANCH   1   2
BRANCH   1  27
ATOM     27  C   UNL     1       1.465   0.443   0.340  1.00  0.00     0.339 C 
ATOM     28  C   UNL     1       1.956   1.149  -0.944  1.00  0.00     0.214 C 
ATOM     29  O   UNL     1       2.324   0.815   1.411  1.00  0.00    -0.332 OA
ATOM     30  C   UNL     1       3.484   1.046  -1.086  1.00  0.00     0.180 C 
ATOM     31  C   UNL     1       3.615   0.188   1.327  1.00  0.00     0.179 C 
ATOM     32  C   UNL     1       4.089  -0.006  -0.141  1.00  0.00     0.177 C 
BRANCH  28  33
ATOM     33  O   UNL     1       1.328   0.552  -2.093  1.00  0.00    -0.384 OA
ATOM     34  H   UNL     1       0.409   0.883  -2.104  1.00  0.00     0.211 HD
ENDBRANCH  28  33
BRANCH  30  35
ATOM     35  O   UNL     1       4.094   2.321  -0.827  1.00  0.00    -0.387 OA
ATOM     36  H   UNL     1       5.043   2.138  -0.671  1.00  0.00     0.211 HD
ENDBRANCH  30  35
BRANCH  31  37
ATOM     37  C   UNL     1       4.571   0.991   2.223  1.00  0.00     0.191 C 
BRANCH  37  38
ATOM     38  O   UNL     1       5.665   0.207   2.694  1.00  0.00    -0.394 OA
ATOM     39  H   UNL     1       5.291  -0.500   3.248  1.00  0.00     0.210 HD
ENDBRANCH  37  38
ENDBRANCH  31  37
BRANCH  32  40
ATOM     40  O   UNL     1       5.510   0.006  -0.282  1.00  0.00    -0.387 OA
ATOM     41  H   UNL     1       5.729  -0.384  -1.146  1.00  0.00     0.211 HD
ENDBRANCH  32  40
ENDBRANCH   1  27
TORSDOF 12
