REMARK SMILES O=c1c(O[C@@H]2O[C@H]([C@H](O)CO)[C@H](O)[C@H]2O)c(-c2ccc(O)c(O)c2)oc2cc(O)cc(O)c12
REMARK SMILES IDX 5 1 14 2 12 3 7 4 6 5 4 6 3 7 16 8 25 9 2 10 26 11 1 12
REMARK SMILES IDX 33 13 27 14 31 15 28 16 30 17 17 18 18 19 19 20 20 21 24 22
REMARK SMILES IDX 22 23 21 24 23 26 32 28 29 30 15 32 13 34 8 36 10 37 11 38
REMARK SMILES IDX 9 40
REMARK H PARENT 21 25 23 27 32 29 29 31 15 33 13 35 11 39 9 41
ROOT
ATOM      1  C   UNL     1       1.084  -1.028  -0.810  1.00  0.00     0.339 C 
ATOM      2  C   UNL     1       2.435  -1.375  -1.437  1.00  0.00     0.214 C 
ATOM      3  C   UNL     1       3.036  -2.262  -0.371  1.00  0.00     0.181 C 
ATOM      4  C   UNL     1       2.531  -1.644   0.935  1.00  0.00     0.185 C 
ATOM      5  O   UNL     1       1.291  -0.962   0.620  1.00  0.00    -0.332 OA
ENDROOT
BRANCH   1   6
ATOM      6  O   UNL     1       0.599   0.190  -1.393  1.00  0.00    -0.454 OA
BRANCH   6   7
ATOM      7  C   UNL     1      -0.350   0.826  -0.621  1.00  0.00     0.214 C 
ATOM      8  C   UNL     1      -1.635   0.437  -0.482  1.00  0.00     0.180 C 
ATOM      9  O   UNL     1      -2.570   1.085   0.311  1.00  0.00    -0.452 OA
ATOM     10  C   UNL     1       0.075   2.080   0.054  1.00  0.00     0.239 C 
ATOM     11  C   UNL     1      -2.195   2.218   0.984  1.00  0.00     0.146 A 
ATOM     12  O   UNL     1       1.206   2.549  -0.067  1.00  0.00    -0.285 OA
ATOM     13  C   UNL     1      -0.916   2.760   0.896  1.00  0.00     0.111 A 
ATOM     14  C   UNL     1      -3.168   2.829   1.777  1.00  0.00     0.094 A 
ATOM     15  C   UNL     1      -0.606   3.926   1.606  1.00  0.00     0.134 A 
ATOM     16  C   UNL     1      -2.845   3.986   2.481  1.00  0.00     0.123 A 
ATOM     17  C   UNL     1      -1.570   4.538   2.402  1.00  0.00     0.093 A 
BRANCH   8  18
ATOM     18  C   UNL     1      -2.201  -0.742  -1.164  1.00  0.00     0.025 A 
ATOM     19  C   UNL     1      -2.832  -1.748  -0.409  1.00  0.00     0.016 A 
ATOM     20  C   UNL     1      -3.389  -2.871  -1.031  1.00  0.00     0.051 A 
ATOM     21  C   UNL     1      -3.320  -2.980  -2.413  1.00  0.00     0.157 A 
ATOM     22  C   UNL     1      -2.146  -0.869  -2.559  1.00  0.00     0.062 A 
ATOM     23  C   UNL     1      -2.705  -1.985  -3.167  1.00  0.00     0.158 A 
BRANCH  21  24
ATOM     24  O   UNL     1      -3.847  -4.051  -3.081  1.00  0.00    -0.504 OA
ATOM     25  H   UNL     1      -4.238  -4.655  -2.427  1.00  0.00     0.293 HD
ENDBRANCH  21  24
BRANCH  23  26
ATOM     26  O   UNL     1      -2.649  -2.098  -4.527  1.00  0.00    -0.504 OA
ATOM     27  H   UNL     1      -3.083  -2.953  -4.723  1.00  0.00     0.293 HD
ENDBRANCH  23  26
ENDBRANCH   8  18
BRANCH  15  28
ATOM     28  O   UNL     1       0.627   4.520   1.564  1.00  0.00    -0.507 OA
ATOM     29  H   UNL     1       1.188   4.017   0.933  1.00  0.00     0.293 HD
ENDBRANCH  15  28
BRANCH  16  30
ATOM     30  O   UNL     1      -3.762   4.617   3.268  1.00  0.00    -0.508 OA
ATOM     31  H   UNL     1      -4.608   4.142   3.220  1.00  0.00     0.293 HD
ENDBRANCH  16  30
ENDBRANCH   6   7
ENDBRANCH   1   6
BRANCH   2  32
ATOM     32  O   UNL     1       2.320  -2.083  -2.674  1.00  0.00    -0.384 OA
ATOM     33  H   UNL     1       3.237  -2.267  -2.953  1.00  0.00     0.211 HD
ENDBRANCH   2  32
BRANCH   3  34
ATOM     34  O   UNL     1       4.442  -2.393  -0.518  1.00  0.00    -0.387 OA
ATOM     35  H   UNL     1       4.751  -3.038   0.143  1.00  0.00     0.211 HD
ENDBRANCH   3  34
BRANCH   4  36
ATOM     36  C   UNL     1       3.514  -0.734   1.712  1.00  0.00     0.171 C 
BRANCH  36  37
ATOM     37  C   UNL     1       3.331   0.768   1.476  1.00  0.00     0.190 C 
BRANCH  37  38
ATOM     38  O   UNL     1       3.551   1.122   0.123  1.00  0.00    -0.394 OA
ATOM     39  H   UNL     1       2.851   1.773  -0.109  1.00  0.00     0.210 HD
ENDBRANCH  37  38
ENDBRANCH  36  37
BRANCH  36  40
ATOM     40  O   UNL     1       3.329  -0.989   3.120  1.00  0.00    -0.388 OA
ATOM     41  H   UNL     1       3.961  -0.427   3.603  1.00  0.00     0.211 HD
ENDBRANCH  36  40
ENDBRANCH   4  36
TORSDOF 13
