REMARK SMILES Oc1cc(O)c2c(c1)O[C@H](c1ccc(O)c(O)c1)[C@H](O)C2
REMARK SMILES IDX 21 1 19 2 10 3 9 4 7 5 8 6 2 7 3 8 4 9 6 10 20 11 11 13
REMARK SMILES IDX 18 14 12 15 16 16 13 17 14 18 17 19 15 21 5 23 1 25
REMARK H PARENT 20 12 17 20 15 22 5 24 1 26
ROOT
ATOM      1  C   UNL     1       1.855  -1.502  -0.627  1.00  0.00     0.079 C 
ATOM      2  C   UNL     1       0.356  -1.617  -0.339  1.00  0.00     0.164 C 
ATOM      3  C   UNL     1      -0.283  -0.219  -0.456  1.00  0.00     0.232 C 
ATOM      4  O   UNL     1       0.271   0.641   0.558  1.00  0.00    -0.482 OA
ATOM      5  C   UNL     1       1.639   0.722   0.542  1.00  0.00     0.131 A 
ATOM      6  C   UNL     1       2.182   1.854   1.151  1.00  0.00     0.093 A 
ATOM      7  C   UNL     1       3.559   2.024   1.181  1.00  0.00     0.122 A 
ATOM      8  C   UNL     1       4.401   1.074   0.619  1.00  0.00     0.092 A 
ATOM      9  C   UNL     1       3.852  -0.067   0.032  1.00  0.00     0.126 A 
ATOM     10  C   UNL     1       2.465  -0.272  -0.006  1.00  0.00     0.039 A 
ENDROOT
BRANCH   2  11
ATOM     11  O   UNL     1       0.190  -2.182   0.971  1.00  0.00    -0.389 OA
ATOM     12  H   UNL     1       0.246  -1.443   1.608  1.00  0.00     0.211 HD
ENDBRANCH   2  11
BRANCH   3  13
ATOM     13  C   UNL     1      -1.799  -0.133  -0.339  1.00  0.00    -0.001 A 
ATOM     14  C   UNL     1      -2.625  -1.250  -0.145  1.00  0.00     0.057 A 
ATOM     15  C   UNL     1      -2.410   1.135  -0.456  1.00  0.00     0.012 A 
ATOM     16  C   UNL     1      -4.004  -1.089  -0.072  1.00  0.00     0.157 A 
ATOM     17  C   UNL     1      -3.798   1.290  -0.376  1.00  0.00     0.050 A 
ATOM     18  C   UNL     1      -4.589   0.168  -0.185  1.00  0.00     0.157 A 
BRANCH  16  19
ATOM     19  O   UNL     1      -4.792  -2.190   0.114  1.00  0.00    -0.504 OA
ATOM     20  H   UNL     1      -5.703  -1.836   0.146  1.00  0.00     0.293 HD
ENDBRANCH  16  19
BRANCH  18  21
ATOM     21  O   UNL     1      -5.951   0.247  -0.099  1.00  0.00    -0.504 OA
ATOM     22  H   UNL     1      -6.203   1.184  -0.171  1.00  0.00     0.293 HD
ENDBRANCH  18  21
ENDBRANCH   3  13
BRANCH   9  23
ATOM     23  O   UNL     1       4.753  -0.950  -0.495  1.00  0.00    -0.507 OA
ATOM     24  H   UNL     1       4.296  -1.743  -0.814  1.00  0.00     0.293 HD
ENDBRANCH   9  23
BRANCH   7  25
ATOM     25  O   UNL     1       4.051   3.149   1.774  1.00  0.00    -0.508 OA
ATOM     26  H   UNL     1       5.021   3.119   1.737  1.00  0.00     0.293 HD
ENDBRANCH   7  25
TORSDOF 6
