REMARK SMILES CC(C)C1=C[C@H]2[C@@H](CC[C@]2(C)O)[C@](C)(O)CC1
REMARK SMILES IDX 6 1 7 2 8 3 9 4 10 5 11 6 5 7 4 8 2 9 1 10 3 11 17 12 13 14
REMARK SMILES IDX 14 15 16 16 15 18 12 20
REMARK H PARENT 15 19 12 21
REMARK Flexibility Score:    4.900
ROOT
ATOM      1  C   UNL     1      -0.697  -0.391   0.941  1.00  0.00     0.049 C 
ATOM      2  C   UNL     1      -1.431   0.514  -0.072  1.00  0.00     0.030 C 
ATOM      3  C   UNL     1      -2.940   0.283   0.161  1.00  0.00     0.010 C 
ATOM      4  C   UNL     1      -3.035  -0.758   1.268  1.00  0.00     0.036 C 
ATOM      5  C   UNL     1      -1.717  -1.533   1.197  1.00  0.00     0.069 C 
ATOM      6  C   UNL     1      -1.764  -2.624   0.122  1.00  0.00     0.042 C 
ENDROOT
BRANCH   1   7
ATOM      7  C   UNL     1       0.674  -0.852   0.497  1.00  0.00    -0.021 C 
ATOM      8  C   UNL     1       1.520  -0.258  -0.373  1.00  0.00    -0.071 C 
BRANCH   8   9
ATOM      9  C   UNL     1       2.819  -0.977  -0.748  1.00  0.00     0.008 C 
ATOM     10  C   UNL     1       2.976  -1.133  -2.263  1.00  0.00     0.012 C 
ATOM     11  C   UNL     1       4.047  -0.299  -0.135  1.00  0.00     0.012 C 
ENDBRANCH   8   9
BRANCH   8  12
ATOM     12  C   UNL     1       1.292   1.106  -1.005  1.00  0.00     0.034 CG0
ATOM     13  G   UNL     1       0.571   2.129  -0.119  1.00  0.00     0.000 G0
ENDBRANCH   8  12
ENDBRANCH   1   7
BRANCH   2  14
ATOM     14  C   UNL     1      -0.965   1.985  -0.051  1.00  0.00     0.066 C 
ATOM     15  C   UNL     1      -1.463   2.786   1.162  1.00  0.00     0.042 C 
BRANCH  14  16
ATOM     16  C   UNL     1       0.571   2.129  -0.119  1.00  0.00     0.039 CG0
ATOM     17  G   UNL     1       1.292   1.106  -1.005  1.00  0.00     0.000 G0
ENDBRANCH  14  16
BRANCH  14  18
ATOM     18  O   UNL     1      -1.528   2.634  -1.203  1.00  0.00    -0.390 OA
ATOM     19  H   UNL     1      -1.211   2.175  -1.998  1.00  0.00     0.211 HD
ENDBRANCH  14  18
ENDBRANCH   2  14
BRANCH   5  20
ATOM     20  O   UNL     1      -1.489  -2.151   2.462  1.00  0.00    -0.390 OA
ATOM     21  H   UNL     1      -0.629  -2.601   2.426  1.00  0.00     0.211 HD
ENDBRANCH   5  20
TORSDOF 3
