REMARK SMILES C=C1CCC(C(C)C)=C[C@H]2[C@@H]1CC[C@@]2(C)O
REMARK SMILES IDX 10 1 11 2 12 3 13 4 14 5 15 6 9 7 5 8 6 9 7 10 8 11 4 12
REMARK SMILES IDX 2 14 1 15 3 16 16 18
REMARK H PARENT 16 19
REMARK Flexibility Score:    4.900
ROOT
ATOM      1  C   UNL     1      -1.106   0.421  -0.736  1.00  0.00     0.050 C 
ATOM      2  C   UNL     1      -1.587  -0.843   0.028  1.00  0.00     0.024 C 
ATOM      3  C   UNL     1      -1.876  -0.318   1.445  1.00  0.00     0.012 C 
ATOM      4  C   UNL     1      -2.292   1.151   1.268  1.00  0.00     0.036 C 
ATOM      5  C   UNL     1      -2.174   1.456  -0.235  1.00  0.00     0.069 C 
ATOM      6  C   UNL     1      -3.532   1.311  -0.940  1.00  0.00     0.042 C 
ENDROOT
BRANCH   1   7
ATOM      7  C   UNL     1       0.311   0.906  -0.445  1.00  0.00    -0.021 C 
ATOM      8  C   UNL     1       1.458   0.198  -0.412  1.00  0.00    -0.071 C 
BRANCH   8   9
ATOM      9  C   UNL     1       2.777   0.908  -0.112  1.00  0.00     0.008 C 
ATOM     10  C   UNL     1       3.752   0.827  -1.290  1.00  0.00     0.012 C 
ATOM     11  C   UNL     1       3.424   0.392   1.176  1.00  0.00     0.012 C 
ENDBRANCH   8   9
BRANCH   8  12
ATOM     12  C   UNL     1       1.504  -1.287  -0.670  1.00  0.00     0.035 CG0
ATOM     13  G   UNL     1       0.680  -2.085   0.338  1.00  0.00     0.000 G0
ENDBRANCH   8  12
ENDBRANCH   1   7
BRANCH   2  14
ATOM     14  C   UNL     1      -0.781  -2.122  -0.029  1.00  0.00    -0.073 C 
ATOM     15  C   UNL     1      -1.355  -3.283  -0.396  1.00  0.00     0.008 C 
BRANCH  14  16
ATOM     16  C   UNL     1       0.680  -2.085   0.338  1.00  0.00     0.035 CG0
ATOM     17  G   UNL     1       1.504  -1.287  -0.670  1.00  0.00     0.000 G0
ENDBRANCH  14  16
ENDBRANCH   2  14
BRANCH   5  18
ATOM     18  O   UNL     1      -1.780   2.814  -0.429  1.00  0.00    -0.390 OA
ATOM     19  H   UNL     1      -1.594   2.932  -1.378  1.00  0.00     0.211 HD
ENDBRANCH   5  18
TORSDOF 2
