REMARK SMILES COc1cc(O)c2c(O)c3c(=O)cc(C)oc3cc2c1
REMARK SMILES IDX 15 1 14 2 13 3 11 4 12 5 10 6 8 7 7 8 5 9 4 10 3 11 20 12
REMARK SMILES IDX 19 13 18 14 17 15 16 16 9 17 6 19 2 21 1 22
REMARK H PARENT 9 18 6 20
ROOT
ATOM      1  C   UNL     1       4.933  -1.643   0.247  1.00  0.00     0.088 C 
ATOM      2  C   UNL     1       3.807  -0.674   0.064  1.00  0.00     0.105 C 
ATOM      3  C   UNL     1       4.012   0.621  -0.215  1.00  0.00     0.095 C 
ATOM      4  C   UNL     1       2.853   1.509  -0.380  1.00  0.00     0.196 C 
ATOM      5  O   UNL     1       2.984   2.701  -0.637  1.00  0.00    -0.289 OA
ATOM      6  C   UNL     1       1.522   0.909  -0.225  1.00  0.00     0.107 A 
ATOM      7  C   UNL     1       0.349   1.664  -0.361  1.00  0.00     0.142 A 
ATOM      8  C   UNL     1      -0.929   1.066  -0.208  1.00  0.00     0.067 A 
ATOM      9  C   UNL     1      -2.160   1.755  -0.328  1.00  0.00     0.130 A 
ATOM     10  C   UNL     1      -3.385   1.112  -0.166  1.00  0.00     0.093 A 
ATOM     11  C   UNL     1      -3.430  -0.248   0.124  1.00  0.00     0.123 A 
ATOM     12  C   UNL     1      -2.234  -0.956   0.250  1.00  0.00     0.055 A 
ATOM     13  C   UNL     1      -0.987  -0.319   0.088  1.00  0.00    -0.004 A 
ATOM     14  C   UNL     1       0.203  -1.056   0.220  1.00  0.00     0.057 A 
ATOM     15  C   UNL     1       1.447  -0.446   0.065  1.00  0.00     0.142 A 
ATOM     16  O   UNL     1       2.553  -1.245   0.212  1.00  0.00    -0.461 OA
ENDROOT
BRANCH   7  17
ATOM     17  O   UNL     1       0.400   3.014  -0.649  1.00  0.00    -0.506 OA
ATOM     18  H   UNL     1       1.348   3.277  -0.725  1.00  0.00     0.293 HD
ENDBRANCH   7  17
BRANCH   9  19
ATOM     19  O   UNL     1      -2.220   3.096  -0.612  1.00  0.00    -0.507 OA
ATOM     20  H   UNL     1      -1.294   3.406  -0.698  1.00  0.00     0.293 HD
ENDBRANCH   9  19
BRANCH  11  21
ATOM     21  O   UNL     1      -4.689  -0.763   0.260  1.00  0.00    -0.497 OA
ATOM     22  C   UNL     1      -4.796  -2.149   0.557  1.00  0.00     0.278 C 
ENDBRANCH  11  21
TORSDOF 3
