REMARK SMILES COc1cc2c(c(OC)c1OC)C(=O)c1c(cc(C)c(O)c1OC)C2=O
REMARK SMILES IDX 19 1 18 2 17 3 16 4 15 5 22 6 20 7 13 8 14 9 6 10 7 11 10 12
REMARK SMILES IDX 3 13 4 14 5 15 25 16 26 17 21 18 23 20 24 21 8 22 9 23 2 24
REMARK SMILES IDX 1 25 11 26 12 27
REMARK H PARENT 21 19
ROOT
ATOM      1  C   UNL     1      -5.264   2.356   0.995  1.00  0.00     0.048 C 
ATOM      2  C   UNL     1      -4.076   1.475   0.745  1.00  0.00    -0.005 A 
ATOM      3  C   UNL     1      -2.800   2.023   0.583  1.00  0.00     0.020 A 
ATOM      4  C   UNL     1      -1.683   1.194   0.376  1.00  0.00     0.038 A 
ATOM      5  C   UNL     1      -1.821  -0.194   0.323  1.00  0.00     0.080 A 
ATOM      6  C   UNL     1      -3.104  -0.746   0.454  1.00  0.00     0.172 A 
ATOM      7  C   UNL     1      -4.206   0.087   0.692  1.00  0.00     0.161 A 
ATOM      8  C   UNL     1      -0.604  -1.031   0.185  1.00  0.00     0.202 C 
ATOM      9  O   UNL     1      -0.640  -2.217   0.488  1.00  0.00    -0.288 OA
ATOM     10  C   UNL     1       0.664  -0.401  -0.262  1.00  0.00     0.080 A 
ATOM     11  C   UNL     1       1.760  -1.152  -0.716  1.00  0.00     0.176 A 
ATOM     12  C   UNL     1       2.963  -0.517  -1.087  1.00  0.00     0.204 A 
ATOM     13  C   UNL     1       3.076   0.883  -1.020  1.00  0.00     0.165 A 
ATOM     14  C   UNL     1       1.984   1.624  -0.564  1.00  0.00     0.063 A 
ATOM     15  C   UNL     1       0.786   0.985  -0.200  1.00  0.00     0.041 A 
ATOM     16  C   UNL     1      -0.357   1.818   0.217  1.00  0.00     0.194 C 
ATOM     17  O   UNL     1      -0.209   3.021   0.397  1.00  0.00    -0.289 OA
ENDROOT
BRANCH   7  18
ATOM     18  O   UNL     1      -5.442  -0.472   0.883  1.00  0.00    -0.504 OA
ATOM     19  H   UNL     1      -5.291  -1.436   0.946  1.00  0.00     0.293 HD
ENDBRANCH   7  18
BRANCH   6  20
ATOM     20  O   UNL     1      -3.366  -2.094   0.424  1.00  0.00    -0.492 OA
ATOM     21  C   UNL     1      -3.395  -2.577  -0.923  1.00  0.00     0.278 C 
ENDBRANCH   6  20
BRANCH  11  22
ATOM     22  O   UNL     1       1.632  -2.507  -0.913  1.00  0.00    -0.492 OA
ATOM     23  C   UNL     1       2.213  -3.238   0.167  1.00  0.00     0.278 C 
ENDBRANCH  11  22
BRANCH  13  24
ATOM     24  O   UNL     1       4.254   1.438  -1.444  1.00  0.00    -0.493 OA
ATOM     25  C   UNL     1       4.350   2.857  -1.480  1.00  0.00     0.278 C 
ENDBRANCH  13  24
BRANCH  12  26
ATOM     26  O   UNL     1       3.955  -1.324  -1.595  1.00  0.00    -0.490 OA
ATOM     27  C   UNL     1       5.221  -1.155  -0.961  1.00  0.00     0.278 C 
ENDBRANCH  12  26
TORSDOF 5
