REMARK SMILES COc1ccc(-c2coc3cc(O)cc(O)c3c2=O)cc1
REMARK SMILES IDX 7 1 8 2 9 3 10 4 11 5 12 6 14 7 15 8 17 9 18 10 19 11 6 12
REMARK SMILES IDX 3 13 4 14 21 15 5 16 20 17 2 18 1 19 16 20 13 22
REMARK H PARENT 16 21 13 23
ROOT
ATOM      1  C   UNL     1       0.195   0.037   0.696  1.00  0.00     0.065 C 
ATOM      2  C   UNL     1       0.803   0.385   1.841  1.00  0.00     0.208 C 
ATOM      3  O   UNL     1       2.156   0.465   2.065  1.00  0.00    -0.463 OA
ATOM      4  C   UNL     1       2.995   0.166   1.023  1.00  0.00     0.145 A 
ATOM      5  C   UNL     1       4.366   0.247   1.269  1.00  0.00     0.094 A 
ATOM      6  C   UNL     1       5.264  -0.045   0.246  1.00  0.00     0.123 A 
ATOM      7  C   UNL     1       4.816  -0.416  -1.018  1.00  0.00     0.093 A 
ATOM      8  C   UNL     1       3.445  -0.495  -1.257  1.00  0.00     0.134 A 
ATOM      9  C   UNL     1       2.530  -0.204  -0.237  1.00  0.00     0.107 A 
ATOM     10  C   UNL     1       1.077  -0.278  -0.460  1.00  0.00     0.204 C 
ATOM     11  O   UNL     1       0.651  -0.593  -1.569  1.00  0.00    -0.288 OA
ENDROOT
BRANCH   1  12
ATOM     12  C   UNL     1      -1.276   0.007   0.602  1.00  0.00    -0.011 A 
ATOM     13  C   UNL     1      -4.094  -0.036   0.411  1.00  0.00     0.118 A 
ATOM     14  C   UNL     1      -3.335   0.634  -0.547  1.00  0.00     0.047 A 
ATOM     15  C   UNL     1      -3.443  -0.686   1.460  1.00  0.00     0.047 A 
ATOM     16  C   UNL     1      -1.937   0.654  -0.451  1.00  0.00     0.013 A 
ATOM     17  C   UNL     1      -2.048  -0.669   1.556  1.00  0.00     0.013 A 
BRANCH  13  18
ATOM     18  O   UNL     1      -5.458  -0.131   0.437  1.00  0.00    -0.497 OA
ATOM     19  C   UNL     1      -6.165   0.484  -0.633  1.00  0.00     0.278 C 
ENDBRANCH  13  18
ENDBRANCH   1  12
BRANCH   8  20
ATOM     20  O   UNL     1       3.064  -0.866  -2.519  1.00  0.00    -0.507 OA
ATOM     21  H   UNL     1       2.080  -0.887  -2.546  1.00  0.00     0.293 HD
ENDBRANCH   8  20
BRANCH   6  22
ATOM     22  O   UNL     1       6.595   0.046   0.528  1.00  0.00    -0.508 OA
ATOM     23  H   UNL     1       7.101  -0.185  -0.270  1.00  0.00     0.293 HD
ENDBRANCH   6  22
TORSDOF 4
