REMARK SMILES O=c1c(-c2ccc(O)cc2)coc2cc(O[C@@H]3O[C@H](CO)[C@@H](O)[C@H](O)[C@H]3O)ccc12
REMARK SMILES IDX 16 1 15 2 3 3 11 4 2 5 12 6 30 7 1 8 13 9 29 10 14 11 28 12
REMARK SMILES IDX 4 13 5 14 6 15 7 16 10 17 9 18 8 19 17 21 26 22 18 23 24 24
REMARK SMILES IDX 19 25 22 26 27 27 25 29 20 31 21 32 23 34
REMARK H PARENT 8 20 27 28 25 30 21 33 23 35
ROOT
ATOM      1  O   UNL     1      -2.479  -0.951   1.002  1.00  0.00    -0.462 OA
ENDROOT
BRANCH   1   2
ATOM      2  C   UNL     1      -1.153  -0.643   0.876  1.00  0.00     0.126 A 
ATOM      3  C   UNL     1       3.712   0.245  -0.393  1.00  0.00     0.065 C 
ATOM      4  C   UNL     1       3.010  -0.262  -1.419  1.00  0.00     0.208 C 
ATOM      5  C   UNL     1       2.974   0.469   0.883  1.00  0.00     0.200 C 
ATOM      6  O   UNL     1       1.683  -0.618  -1.417  1.00  0.00    -0.463 OA
ATOM      7  C   UNL     1       1.549   0.091   0.897  1.00  0.00     0.066 A 
ATOM      8  O   UNL     1       3.500   0.939   1.885  1.00  0.00    -0.288 OA
ATOM      9  C   UNL     1       0.976  -0.436  -0.256  1.00  0.00     0.141 A 
ATOM     10  C   UNL     1       0.776   0.258   2.047  1.00  0.00     0.020 A 
ATOM     11  C   UNL     1      -0.374  -0.804  -0.270  1.00  0.00     0.094 A 
ATOM     12  C   UNL     1      -0.572  -0.107   2.031  1.00  0.00     0.047 A 
BRANCH   3  13
ATOM     13  C   UNL     1       5.138   0.590  -0.554  1.00  0.00    -0.011 A 
ATOM     14  C   UNL     1       5.620   1.841  -0.141  1.00  0.00     0.013 A 
ATOM     15  C   UNL     1       6.969   2.177  -0.294  1.00  0.00     0.047 A 
ATOM     16  C   UNL     1       7.842   1.258  -0.862  1.00  0.00     0.115 A 
ATOM     17  C   UNL     1       6.043  -0.324  -1.119  1.00  0.00     0.013 A 
ATOM     18  C   UNL     1       7.391   0.011  -1.275  1.00  0.00     0.047 A 
BRANCH  16  19
ATOM     19  O   UNL     1       9.164   1.543  -1.030  1.00  0.00    -0.508 OA
ATOM     20  H   UNL     1       9.338   2.427  -0.669  1.00  0.00     0.293 HD
ENDBRANCH  16  19
ENDBRANCH   3  13
ENDBRANCH   1   2
BRANCH   1  21
ATOM     21  C   UNL     1      -3.130  -1.621  -0.088  1.00  0.00     0.339 C 
ATOM     22  C   UNL     1      -4.483  -2.150   0.436  1.00  0.00     0.214 C 
ATOM     23  O   UNL     1      -3.274  -0.771  -1.234  1.00  0.00    -0.332 OA
ATOM     24  C   UNL     1      -5.411  -0.981   0.818  1.00  0.00     0.180 C 
ATOM     25  C   UNL     1      -4.467   0.042  -1.267  1.00  0.00     0.179 C 
ATOM     26  C   UNL     1      -5.024   0.338   0.127  1.00  0.00     0.177 C 
BRANCH  22  27
ATOM     27  O   UNL     1      -5.134  -2.951  -0.562  1.00  0.00    -0.384 OA
ATOM     28  H   UNL     1      -4.577  -3.730  -0.738  1.00  0.00     0.211 HD
ENDBRANCH  22  27
BRANCH  24  29
ATOM     29  O   UNL     1      -5.414  -0.756   2.240  1.00  0.00    -0.387 OA
ATOM     30  H   UNL     1      -4.496  -0.587   2.520  1.00  0.00     0.211 HD
ENDBRANCH  24  29
BRANCH  25  31
ATOM     31  C   UNL     1      -4.109   1.328  -2.021  1.00  0.00     0.191 C 
BRANCH  31  32
ATOM     32  O   UNL     1      -3.573   1.003  -3.307  1.00  0.00    -0.394 OA
ATOM     33  H   UNL     1      -2.957   0.262  -3.152  1.00  0.00     0.210 HD
ENDBRANCH  31  32
ENDBRANCH  25  31
BRANCH  26  34
ATOM     34  O   UNL     1      -6.160   1.203   0.078  1.00  0.00    -0.387 OA
ATOM     35  H   UNL     1      -6.559   1.188   0.969  1.00  0.00     0.211 HD
ENDBRANCH  26  34
ENDBRANCH   1  21
TORSDOF 9
