REMARK SMILES O=c1c(-c2ccc(O)cc2)coc2cc(O)ccc12
REMARK SMILES IDX 3 1 11 2 12 3 13 4 19 5 2 6 1 7 18 8 17 9 15 10 14 11 4 12
REMARK SMILES IDX 5 13 6 14 7 15 10 16 9 17 8 18 16 20
REMARK H PARENT 8 19 16 21
ROOT
ATOM      1  C   UNL     1       0.404   0.224  -0.304  1.00  0.00     0.065 C 
ATOM      2  C   UNL     1      -0.181   1.072  -1.166  1.00  0.00     0.208 C 
ATOM      3  O   UNL     1      -1.527   1.216  -1.399  1.00  0.00    -0.463 OA
ATOM      4  C   UNL     1      -2.386   0.420  -0.684  1.00  0.00     0.141 A 
ATOM      5  C   UNL     1      -1.945  -0.506   0.259  1.00  0.00     0.066 A 
ATOM      6  C   UNL     1      -0.498  -0.645   0.506  1.00  0.00     0.200 C 
ATOM      7  O   UNL     1      -0.082  -1.441   1.339  1.00  0.00    -0.288 OA
ATOM      8  C   UNL     1      -2.867  -1.290   0.960  1.00  0.00     0.020 A 
ATOM      9  C   UNL     1      -4.231  -1.139   0.710  1.00  0.00     0.047 A 
ATOM     10  C   UNL     1      -4.662  -0.211  -0.234  1.00  0.00     0.119 A 
ATOM     11  C   UNL     1      -3.751   0.573  -0.936  1.00  0.00     0.094 A 
ENDROOT
BRANCH   1  12
ATOM     12  C   UNL     1       1.873   0.197  -0.158  1.00  0.00    -0.011 A 
ATOM     13  C   UNL     1       2.463   0.249   1.114  1.00  0.00     0.013 A 
ATOM     14  C   UNL     1       3.854   0.228   1.261  1.00  0.00     0.047 A 
ATOM     15  C   UNL     1       4.660   0.154   0.132  1.00  0.00     0.115 A 
ATOM     16  C   UNL     1       2.710   0.114  -1.283  1.00  0.00     0.013 A 
ATOM     17  C   UNL     1       4.099   0.096  -1.138  1.00  0.00     0.047 A 
BRANCH  15  18
ATOM     18  O   UNL     1       6.019   0.130   0.228  1.00  0.00    -0.508 OA
ATOM     19  H   UNL     1       6.261   0.132   1.169  1.00  0.00     0.293 HD
ENDBRANCH  15  18
ENDBRANCH   1  12
BRANCH  10  20
ATOM     20  O   UNL     1      -6.004  -0.100  -0.444  1.00  0.00    -0.508 OA
ATOM     21  H   UNL     1      -6.165   0.575  -1.123  1.00  0.00     0.293 HD
ENDBRANCH  10  20
TORSDOF 3
