REMARK SMILES COc1cc(O)c2c(O)c3c(=O)oc(C)cc3cc2c1
REMARK SMILES IDX 15 1 14 2 16 3 17 4 18 5 19 6 20 7 3 8 4 9 5 10 7 11 8 12
REMARK SMILES IDX 10 13 11 14 12 15 13 16 9 17 2 19 1 20 6 21
REMARK H PARENT 9 18 6 22
ROOT
ATOM      1  C   UNL     1      -5.560   0.377   0.352  1.00  0.00     0.088 C 
ATOM      2  C   UNL     1      -4.133   0.053   0.047  1.00  0.00     0.105 C 
ATOM      3  C   UNL     1      -3.091   0.663   0.623  1.00  0.00     0.051 C 
ATOM      4  C   UNL     1      -1.743   0.262   0.246  1.00  0.00    -0.003 A 
ATOM      5  C   UNL     1      -0.631   0.878   0.828  1.00  0.00     0.018 A 
ATOM      6  C   UNL     1       0.678   0.504   0.476  1.00  0.00    -0.007 A 
ATOM      7  C   UNL     1       1.780   1.140   1.076  1.00  0.00     0.055 A 
ATOM      8  C   UNL     1       3.094   0.794   0.751  1.00  0.00     0.123 A 
ATOM      9  C   UNL     1       3.319  -0.202  -0.189  1.00  0.00     0.093 A 
ATOM     10  C   UNL     1       2.234  -0.841  -0.792  1.00  0.00     0.130 A 
ATOM     11  C   UNL     1       0.890  -0.513  -0.483  1.00  0.00     0.067 A 
ATOM     12  C   UNL     1      -0.252  -1.128  -1.064  1.00  0.00     0.142 A 
ATOM     13  C   UNL     1      -1.555  -0.743  -0.702  1.00  0.00     0.110 A 
ATOM     14  C   UNL     1      -2.736  -1.391  -1.314  1.00  0.00     0.347 C 
ATOM     15  O   UNL     1      -2.583  -2.278  -2.150  1.00  0.00    -0.246 OA
ATOM     16  O   UNL     1      -3.970  -0.968  -0.915  1.00  0.00    -0.428 OA
ENDROOT
BRANCH  12  17
ATOM     17  O   UNL     1      -0.025  -2.120  -2.000  1.00  0.00    -0.506 OA
ATOM     18  H   UNL     1      -0.896  -2.458  -2.319  1.00  0.00     0.293 HD
ENDBRANCH  12  17
BRANCH   8  19
ATOM     19  O   UNL     1       4.054   1.503   1.420  1.00  0.00    -0.497 OA
ATOM     20  C   UNL     1       5.408   1.186   1.122  1.00  0.00     0.278 C 
ENDBRANCH   8  19
BRANCH  10  21
ATOM     21  O   UNL     1       2.553  -1.812  -1.708  1.00  0.00    -0.507 OA
ATOM     22  H   UNL     1       1.704  -2.169  -2.044  1.00  0.00     0.293 HD
ENDBRANCH  10  21
TORSDOF 3
