REMARK SMILES COC[C@H]1Cc2cc3c(c(OC)c2[C@@H](c2ccc(OC)c(OC)c2)[C@@H]1COC)OCO3
REMARK SMILES IDX 4 1 5 2 6 3 7 4 8 5 9 6 10 7 13 8 14 9 25 10 29 11 30 12
REMARK SMILES IDX 31 13 3 14 2 15 1 16 26 17 27 18 28 19 15 20 24 21 16 22
REMARK SMILES IDX 21 23 17 24 18 25 22 26 23 27 19 28 20 29 11 30 12 31
REMARK H PARENT
ROOT
ATOM      1  C   UNL     1      -1.816  -1.671   0.243  1.00  0.00     0.026 C 
ATOM      2  C   UNL     1      -1.767  -0.611   1.356  1.00  0.00     0.042 C 
ATOM      3  C   UNL     1      -1.676   0.763   0.745  1.00  0.00    -0.036 A 
ATOM      4  C   UNL     1      -2.471   1.806   1.230  1.00  0.00     0.055 A 
ATOM      5  C   UNL     1      -2.377   3.029   0.605  1.00  0.00     0.169 A 
ATOM      6  C   UNL     1      -1.540   3.250  -0.469  1.00  0.00     0.207 A 
ATOM      7  C   UNL     1      -0.726   2.243  -0.972  1.00  0.00     0.168 A 
ATOM      8  C   UNL     1      -0.779   0.980  -0.334  1.00  0.00     0.009 A 
ATOM      9  C   UNL     1       0.128  -0.181  -0.748  1.00  0.00     0.059 C 
ATOM     10  C   UNL     1      -0.674  -1.523  -0.818  1.00  0.00     0.033 C 
ATOM     11  O   UNL     1      -1.648   4.535  -0.915  1.00  0.00    -0.450 OA
ATOM     12  C   UNL     1      -2.618   5.083  -0.005  1.00  0.00     0.468 C 
ATOM     13  O   UNL     1      -3.096   4.130   0.957  1.00  0.00    -0.453 OA
ENDROOT
BRANCH   1  14
ATOM     14  C   UNL     1      -1.851  -3.091   0.834  1.00  0.00     0.164 C 
BRANCH  14  15
ATOM     15  O   UNL     1      -2.951  -3.206   1.738  1.00  0.00    -0.384 OA
ATOM     16  C   UNL     1      -3.062  -4.522   2.263  1.00  0.00     0.194 C 
ENDBRANCH  14  15
ENDBRANCH   1  14
BRANCH  10  17
ATOM     17  C   UNL     1      -1.267  -1.680  -2.239  1.00  0.00     0.164 C 
BRANCH  17  18
ATOM     18  O   UNL     1      -1.864  -2.972  -2.364  1.00  0.00    -0.384 OA
ATOM     19  C   UNL     1      -2.472  -3.146  -3.638  1.00  0.00     0.194 C 
ENDBRANCH  17  18
ENDBRANCH  10  17
BRANCH   9  20
ATOM     20  C   UNL     1       1.424  -0.221   0.081  1.00  0.00    -0.036 A 
ATOM     21  C   UNL     1       2.417   0.748  -0.170  1.00  0.00     0.054 A 
ATOM     22  C   UNL     1       1.687  -1.169   1.076  1.00  0.00     0.008 A 
ATOM     23  C   UNL     1       3.620   0.781   0.549  1.00  0.00     0.161 A 
ATOM     24  C   UNL     1       2.887  -1.153   1.796  1.00  0.00     0.051 A 
ATOM     25  C   UNL     1       3.860  -0.184   1.541  1.00  0.00     0.160 A 
BRANCH  23  26
ATOM     26  O   UNL     1       4.618   1.703   0.346  1.00  0.00    -0.493 OA
ATOM     27  C   UNL     1       4.331   2.799  -0.511  1.00  0.00     0.278 C 
ENDBRANCH  23  26
BRANCH  25  28
ATOM     28  O   UNL     1       5.061  -0.095   2.199  1.00  0.00    -0.493 OA
ATOM     29  C   UNL     1       5.323  -1.042   3.223  1.00  0.00     0.278 C 
ENDBRANCH  25  28
ENDBRANCH   9  20
BRANCH   7  30
ATOM     30  O   UNL     1       0.122   2.338  -2.041  1.00  0.00    -0.492 OA
ATOM     31  C   UNL     1       0.235   3.593  -2.697  1.00  0.00     0.278 C 
ENDBRANCH   7  30
TORSDOF 8
