REMARK SMILES O=c1c(O[C@@H]2O[C@H](CO)[C@@H](O)[C@H](O)[C@H]2O)c(-c2ccc(O)cc2)oc2cc(O)cc(O)c12
REMARK SMILES IDX 4 1 3 2 16 3 24 4 2 5 25 6 1 7 32 8 26 9 30 10 27 11 29 12
REMARK SMILES IDX 17 13 18 14 19 15 20 16 23 17 22 18 21 19 31 21 28 23 5 25
REMARK SMILES IDX 14 26 6 27 12 28 7 29 10 30 15 31 13 33 8 35 9 36 11 38
REMARK H PARENT 21 20 31 22 28 24 15 32 13 34 9 37 11 39
ROOT
ATOM      1  O   UNL     1      -0.287  -1.570   0.835  1.00  0.00    -0.454 OA
ENDROOT
BRANCH   1   2
ATOM      2  C   UNL     1      -0.610  -0.970  -0.372  1.00  0.00     0.214 C 
ATOM      3  C   UNL     1      -1.848  -0.512  -0.636  1.00  0.00     0.180 C 
ATOM      4  O   UNL     1      -2.214   0.124  -1.810  1.00  0.00    -0.452 OA
ATOM      5  C   UNL     1       0.422  -0.850  -1.444  1.00  0.00     0.239 C 
ATOM      6  C   UNL     1      -1.231   0.460  -2.706  1.00  0.00     0.146 A 
ATOM      7  O   UNL     1       1.479  -1.469  -1.373  1.00  0.00    -0.285 OA
ATOM      8  C   UNL     1       0.091   0.035  -2.580  1.00  0.00     0.111 A 
ATOM      9  C   UNL     1      -1.623   1.269  -3.776  1.00  0.00     0.094 A 
ATOM     10  C   UNL     1       1.038   0.456  -3.522  1.00  0.00     0.134 A 
ATOM     11  C   UNL     1      -0.674   1.665  -4.709  1.00  0.00     0.123 A 
ATOM     12  C   UNL     1       0.655   1.271  -4.589  1.00  0.00     0.093 A 
BRANCH   3  13
ATOM     13  C   UNL     1      -2.960  -0.610   0.332  1.00  0.00     0.021 A 
ATOM     14  C   UNL     1      -3.701   0.537   0.661  1.00  0.00     0.016 A 
ATOM     15  C   UNL     1      -4.768   0.466   1.561  1.00  0.00     0.047 A 
ATOM     16  C   UNL     1      -5.099  -0.759   2.131  1.00  0.00     0.115 A 
ATOM     17  C   UNL     1      -3.320  -1.834   0.914  1.00  0.00     0.016 A 
ATOM     18  C   UNL     1      -4.385  -1.907   1.814  1.00  0.00     0.047 A 
BRANCH  16  19
ATOM     19  O   UNL     1      -6.132  -0.876   3.013  1.00  0.00    -0.508 OA
ATOM     20  H   UNL     1      -6.536  -0.001   3.138  1.00  0.00     0.293 HD
ENDBRANCH  16  19
ENDBRANCH   3  13
BRANCH  10  21
ATOM     21  O   UNL     1       2.350   0.096  -3.403  1.00  0.00    -0.507 OA
ATOM     22  H   UNL     1       2.879   0.523  -4.097  1.00  0.00     0.293 HD
ENDBRANCH  10  21
BRANCH  11  23
ATOM     23  O   UNL     1      -1.005   2.456  -5.769  1.00  0.00    -0.508 OA
ATOM     24  H   UNL     1      -1.958   2.644  -5.743  1.00  0.00     0.293 HD
ENDBRANCH  11  23
ENDBRANCH   1   2
BRANCH   1  25
ATOM     25  C   UNL     1       0.822  -0.964   1.536  1.00  0.00     0.339 C 
ATOM     26  C   UNL     1       2.051  -1.912   1.489  1.00  0.00     0.214 C 
ATOM     27  O   UNL     1       1.128   0.364   1.093  1.00  0.00    -0.332 OA
ATOM     28  C   UNL     1       3.357  -1.107   1.328  1.00  0.00     0.180 C 
ATOM     29  C   UNL     1       2.110   1.027   1.910  1.00  0.00     0.179 C 
ATOM     30  C   UNL     1       3.311   0.116   2.261  1.00  0.00     0.177 C 
BRANCH  26  31
ATOM     31  O   UNL     1       2.104  -2.694   2.703  1.00  0.00    -0.384 OA
ATOM     32  H   UNL     1       2.438  -2.093   3.404  1.00  0.00     0.211 HD
ENDBRANCH  26  31
BRANCH  28  33
ATOM     33  O   UNL     1       3.597  -0.665  -0.011  1.00  0.00    -0.387 OA
ATOM     34  H   UNL     1       3.012  -1.174  -0.623  1.00  0.00     0.211 HD
ENDBRANCH  28  33
BRANCH  29  35
ATOM     35  C   UNL     1       2.536   2.297   1.153  1.00  0.00     0.191 C 
BRANCH  35  36
ATOM     36  O   UNL     1       3.397   2.049   0.048  1.00  0.00    -0.394 OA
ATOM     37  H   UNL     1       3.248   1.130  -0.267  1.00  0.00     0.210 HD
ENDBRANCH  35  36
ENDBRANCH  29  35
BRANCH  30  38
ATOM     38  O   UNL     1       3.155  -0.358   3.616  1.00  0.00    -0.387 OA
ATOM     39  H   UNL     1       3.465   0.359   4.202  1.00  0.00     0.211 HD
ENDBRANCH  30  38
ENDBRANCH   1  25
TORSDOF 11
