REMARK SMILES N#C/C(=C\CO[C@@H]1O[C@H](CO)[C@@H](O)[C@H](O)[C@H]1O)CO
REMARK SMILES IDX 5 1 4 2 3 3 2 4 1 5 18 6 19 7 6 9 7 10 16 11 8 12 14 13 9 14
REMARK SMILES IDX 12 15 17 16 15 18 10 20 11 21 13 23
REMARK H PARENT 19 8 17 17 15 19 11 22 13 24
ROOT
ATOM      1  C   UNL     1       1.728  -1.791  -1.114  1.00  0.00     0.192 C 
ENDROOT
BRANCH   1   2
ATOM      2  C   UNL     1       2.575  -1.116  -0.077  1.00  0.00     0.018 C 
ATOM      3  C   UNL     1       3.050   0.146  -0.121  1.00  0.00     0.053 C 
ATOM      4  C   UNL     1       2.758   1.006  -1.224  1.00  0.00     0.097 C 
ATOM      5  N   UNL     1       2.475   1.684  -2.122  1.00  0.00    -0.193 NA
BRANCH   3   6
ATOM      6  C   UNL     1       3.821   0.734   1.024  1.00  0.00     0.202 C 
BRANCH   6   7
ATOM      7  O   UNL     1       5.194   0.809   0.664  1.00  0.00    -0.391 OA
ATOM      8  H   UNL     1       5.652   1.253   1.398  1.00  0.00     0.211 HD
ENDBRANCH   6   7
ENDBRANCH   3   6
ENDBRANCH   1   2
BRANCH   1   9
ATOM      9  O   UNL     1       0.472  -2.141  -0.537  1.00  0.00    -0.346 OA
BRANCH   9  10
ATOM     10  C   UNL     1      -0.521  -1.117  -0.699  1.00  0.00     0.282 C 
ATOM     11  C   UNL     1      -1.840  -1.690  -0.149  1.00  0.00     0.202 C 
ATOM     12  O   UNL     1      -0.165   0.064   0.013  1.00  0.00    -0.341 OA
ATOM     13  C   UNL     1      -2.933  -0.628  -0.227  1.00  0.00     0.179 C 
ATOM     14  C   UNL     1      -1.139   1.113  -0.123  1.00  0.00     0.178 C 
ATOM     15  C   UNL     1      -2.480   0.658   0.469  1.00  0.00     0.177 C 
BRANCH  11  16
ATOM     16  O   UNL     1      -2.263  -2.847  -0.888  1.00  0.00    -0.385 OA
ATOM     17  H   UNL     1      -1.490  -3.446  -0.889  1.00  0.00     0.211 HD
ENDBRANCH  11  16
BRANCH  13  18
ATOM     18  O   UNL     1      -4.138  -1.099   0.398  1.00  0.00    -0.387 OA
ATOM     19  H   UNL     1      -4.271  -2.002   0.044  1.00  0.00     0.211 HD
ENDBRANCH  13  18
BRANCH  14  20
ATOM     20  C   UNL     1      -0.599   2.385   0.550  1.00  0.00     0.191 C 
BRANCH  20  21
ATOM     21  O   UNL     1      -0.493   2.250   1.968  1.00  0.00    -0.394 OA
ATOM     22  H   UNL     1      -1.383   2.407   2.330  1.00  0.00     0.210 HD
ENDBRANCH  20  21
ENDBRANCH  14  20
BRANCH  15  23
ATOM     23  O   UNL     1      -3.483   1.663   0.314  1.00  0.00    -0.387 OA
ATOM     24  H   UNL     1      -4.329   1.212   0.517  1.00  0.00     0.211 HD
ENDBRANCH  15  23
ENDBRANCH   9  10
ENDBRANCH   1   9
TORSDOF 10
