REMARK SMILES COC[C@@H](Cc1ccc(OC)c(OC)c1)[C@@H](COC)Cc1cc(OC)c2c(c1)OCO2
REMARK SMILES IDX 4 1 3 2 2 3 1 4 5 5 6 6 15 7 7 8 12 9 8 10 9 11 13 12 14 13
REMARK SMILES IDX 10 14 11 15 16 16 20 17 21 18 28 19 22 20 27 21 23 22 26 23
REMARK SMILES IDX 29 24 31 25 30 26 24 27 25 28 17 29 18 30 19 31
REMARK H PARENT
ROOT
ATOM      1  C   UNL     1       0.166  -1.320   2.068  1.00  0.00     0.025 C 
ENDROOT
BRANCH   1   2
ATOM      2  C   UNL     1       0.289  -2.805   1.664  1.00  0.00     0.164 C 
BRANCH   2   3
ATOM      3  O   UNL     1       1.322  -3.442   2.421  1.00  0.00    -0.384 OA
ATOM      4  C   UNL     1       1.459  -4.812   2.065  1.00  0.00     0.194 C 
ENDBRANCH   2   3
ENDBRANCH   1   2
BRANCH   1   5
ATOM      5  C   UNL     1       1.560  -0.621   2.138  1.00  0.00     0.042 C 
BRANCH   5   6
ATOM      6  C   UNL     1       2.199  -0.244   0.819  1.00  0.00    -0.044 A 
ATOM      7  C   UNL     1       2.765  -1.221  -0.012  1.00  0.00     0.054 A 
ATOM      8  C   UNL     1       2.259   1.094   0.415  1.00  0.00     0.008 A 
ATOM      9  C   UNL     1       3.335  -0.880  -1.246  1.00  0.00     0.160 A 
ATOM     10  C   UNL     1       2.834   1.449  -0.808  1.00  0.00     0.051 A 
ATOM     11  C   UNL     1       3.368   0.469  -1.649  1.00  0.00     0.160 A 
BRANCH   9  12
ATOM     12  O   UNL     1       3.890  -1.784  -2.119  1.00  0.00    -0.493 OA
ATOM     13  C   UNL     1       3.823  -3.159  -1.771  1.00  0.00     0.278 C 
ENDBRANCH   9  12
BRANCH  11  14
ATOM     14  O   UNL     1       3.937   0.724  -2.872  1.00  0.00    -0.493 OA
ATOM     15  C   UNL     1       4.071   2.081  -3.266  1.00  0.00     0.278 C 
ENDBRANCH  11  14
ENDBRANCH   5   6
ENDBRANCH   1   5
BRANCH   1  16
ATOM     16  C   UNL     1      -0.894  -0.539   1.210  1.00  0.00     0.025 C 
BRANCH  16  17
ATOM     17  C   UNL     1      -1.156   0.873   1.796  1.00  0.00     0.042 C 
BRANCH  17  18
ATOM     18  C   UNL     1      -1.909   1.809   0.873  1.00  0.00    -0.040 A 
ATOM     19  C   UNL     1      -3.083   2.436   1.316  1.00  0.00     0.054 A 
ATOM     20  C   UNL     1      -1.418   2.089  -0.427  1.00  0.00     0.054 A 
ATOM     21  C   UNL     1      -3.726   3.296   0.450  1.00  0.00     0.169 A 
ATOM     22  C   UNL     1      -2.091   2.961  -1.292  1.00  0.00     0.165 A 
ATOM     23  C   UNL     1      -3.248   3.552  -0.815  1.00  0.00     0.207 A 
ATOM     24  O   UNL     1      -4.872   3.975   0.726  1.00  0.00    -0.453 OA
ATOM     25  O   UNL     1      -4.044   4.430  -1.491  1.00  0.00    -0.450 OA
ATOM     26  C   UNL     1      -5.064   4.693  -0.510  1.00  0.00     0.468 C 
BRANCH  22  27
ATOM     27  O   UNL     1      -1.707   3.287  -2.560  1.00  0.00    -0.493 OA
ATOM     28  C   UNL     1      -0.595   2.582  -3.098  1.00  0.00     0.278 C 
ENDBRANCH  22  27
ENDBRANCH  17  18
ENDBRANCH  16  17
BRANCH  16  29
ATOM     29  C   UNL     1      -2.244  -1.284   1.089  1.00  0.00     0.164 C 
BRANCH  29  30
ATOM     30  O   UNL     1      -2.109  -2.387   0.190  1.00  0.00    -0.384 OA
ATOM     31  C   UNL     1      -3.344  -3.066   0.002  1.00  0.00     0.194 C 
ENDBRANCH  29  30
ENDBRANCH  16  29
ENDBRANCH   1  16
TORSDOF 12
