REMARK SMILES OC[C@H]1NC[C@H](O)[C@@H](O)[C@@H]1O
REMARK SMILES IDX 5 1 6 2 8 3 10 4 3 5 4 6 7 8 9 10 2 12 1 13 11 15
REMARK H PARENT 4 7 7 9 9 11 1 14 11 16
ROOT
ATOM      1  C   UNL     1       1.219  -1.544   0.384  1.00  0.00     0.116 C 
ATOM      2  C   UNL     1       1.906  -0.245  -0.056  1.00  0.00     0.159 C 
ATOM      3  C   UNL     1       0.999   0.953   0.231  1.00  0.00     0.174 C 
ATOM      4  C   UNL     1      -0.385   0.752  -0.396  1.00  0.00     0.165 C 
ATOM      5  C   UNL     1      -1.000  -0.598   0.049  1.00  0.00     0.111 C 
ATOM      6  N   UNL     1      -0.101  -1.733  -0.231  1.00  0.00    -0.307 NA
ATOM      7  H   UNL     1       0.010  -1.856  -1.239  1.00  0.00     0.123 HD
ENDROOT
BRANCH   2   8
ATOM      8  O   UNL     1       3.141  -0.078   0.644  1.00  0.00    -0.389 OA
ATOM      9  H   UNL     1       3.434   0.831   0.434  1.00  0.00     0.211 HD
ENDBRANCH   2   8
BRANCH   3  10
ATOM     10  O   UNL     1       1.613   2.139  -0.299  1.00  0.00    -0.388 OA
ATOM     11  H   UNL     1       0.908   2.816  -0.331  1.00  0.00     0.211 HD
ENDBRANCH   3  10
BRANCH   5  12
ATOM     12  C   UNL     1      -2.374  -0.824  -0.621  1.00  0.00     0.177 C 
BRANCH  12  13
ATOM     13  O   UNL     1      -3.318   0.171  -0.234  1.00  0.00    -0.395 OA
ATOM     14  H   UNL     1      -2.949   1.037  -0.503  1.00  0.00     0.210 HD
ENDBRANCH  12  13
ENDBRANCH   5  12
BRANCH   4  15
ATOM     15  O   UNL     1      -1.217   1.866  -0.032  1.00  0.00    -0.389 OA
ATOM     16  H   UNL     1      -1.372   1.818   0.932  1.00  0.00     0.211 HD
ENDBRANCH   4  15
TORSDOF 5
