REMARK SMILES OC[C@H]1O[C@@H](Oc2cc(O)cc(/C=C/c3ccc(O)cc3)c2)[C@H](O)[C@@H](O)[C@@H]1O
REMARK SMILES IDX 12 1 11 2 9 3 8 4 7 5 22 6 13 7 14 8 15 9 16 10 17 11 18 12
REMARK SMILES IDX 21 13 20 14 19 15 10 17 6 19 5 20 23 21 4 22 25 23 3 24
REMARK SMILES IDX 27 25 24 26 26 28 2 30 1 31 28 33
REMARK H PARENT 19 16 10 18 24 27 26 29 1 32 28 34
ROOT
ATOM      1  C   UNL     1       1.928   0.820   0.982  1.00  0.00    -0.018 A 
ATOM      2  C   UNL     1       1.678   1.986   1.713  1.00  0.00     0.054 A 
ATOM      3  C   UNL     1       0.373   2.457   1.837  1.00  0.00     0.119 A 
ATOM      4  C   UNL     1      -0.696   1.784   1.252  1.00  0.00     0.092 A 
ATOM      5  C   UNL     1      -0.463   0.617   0.528  1.00  0.00     0.127 A 
ATOM      6  C   UNL     1       0.847   0.136   0.406  1.00  0.00     0.055 A 
ENDROOT
BRANCH   1   7
ATOM      7  C   UNL     1       3.307   0.320   0.888  1.00  0.00     0.009 C 
ATOM      8  C   UNL     1       3.830  -0.213  -0.228  1.00  0.00     0.009 C 
BRANCH   8   9
ATOM      9  C   UNL     1       5.206  -0.719  -0.326  1.00  0.00    -0.025 A 
ATOM     10  C   UNL     1       6.290  -0.059   0.272  1.00  0.00     0.012 A 
ATOM     11  C   UNL     1       7.591  -0.553   0.132  1.00  0.00     0.047 A 
ATOM     12  C   UNL     1       7.808  -1.705  -0.617  1.00  0.00     0.115 A 
ATOM     13  C   UNL     1       5.452  -1.868  -1.088  1.00  0.00     0.012 A 
ATOM     14  C   UNL     1       6.750  -2.364  -1.229  1.00  0.00     0.047 A 
BRANCH  12  15
ATOM     15  O   UNL     1       9.059  -2.221  -0.780  1.00  0.00    -0.508 OA
ATOM     16  H   UNL     1       9.691  -1.661  -0.301  1.00  0.00     0.293 HD
ENDBRANCH  12  15
ENDBRANCH   8   9
ENDBRANCH   1   7
BRANCH   3  17
ATOM     17  O   UNL     1       0.096   3.594   2.539  1.00  0.00    -0.508 OA
ATOM     18  H   UNL     1       0.925   3.955   2.893  1.00  0.00     0.293 HD
ENDBRANCH   3  17
BRANCH   5  19
ATOM     19  O   UNL     1      -1.410  -0.151  -0.092  1.00  0.00    -0.462 OA
BRANCH  19  20
ATOM     20  C   UNL     1      -2.757   0.356  -0.146  1.00  0.00     0.339 C 
ATOM     21  C   UNL     1      -3.486  -0.511  -1.184  1.00  0.00     0.214 C 
ATOM     22  O   UNL     1      -3.384   0.237   1.134  1.00  0.00    -0.332 OA
ATOM     23  C   UNL     1      -4.911   0.007  -1.402  1.00  0.00     0.180 C 
ATOM     24  C   UNL     1      -4.821   0.252   1.144  1.00  0.00     0.179 C 
ATOM     25  C   UNL     1      -5.468   0.735  -0.169  1.00  0.00     0.177 C 
BRANCH  21  26
ATOM     26  O   UNL     1      -2.807  -0.555  -2.451  1.00  0.00    -0.384 OA
ATOM     27  H   UNL     1      -1.862  -0.687  -2.240  1.00  0.00     0.211 HD
ENDBRANCH  21  26
BRANCH  23  28
ATOM     28  O   UNL     1      -5.751  -1.101  -1.759  1.00  0.00    -0.387 OA
ATOM     29  H   UNL     1      -5.383  -1.448  -2.595  1.00  0.00     0.211 HD
ENDBRANCH  23  28
BRANCH  24  30
ATOM     30  C   UNL     1      -5.332  -1.126   1.586  1.00  0.00     0.191 C 
BRANCH  30  31
ATOM     31  O   UNL     1      -6.731  -1.082   1.835  1.00  0.00    -0.394 OA
ATOM     32  H   UNL     1      -7.013  -1.993   2.032  1.00  0.00     0.210 HD
ENDBRANCH  30  31
ENDBRANCH  24  30
BRANCH  25  33
ATOM     33  O   UNL     1      -5.174   2.138  -0.324  1.00  0.00    -0.387 OA
ATOM     34  H   UNL     1      -5.664   2.610   0.374  1.00  0.00     0.211 HD
ENDBRANCH  25  33
ENDBRANCH  19  20
ENDBRANCH   5  19
TORSDOF 11
