REMARK SMILES CC(C)C1CC(OC2C(Br)CC(CCC(O)O)CC2Br)CCC1O
REMARK SMILES IDX 12 1 11 2 9 3 8 4 19 5 18 6 10 7 20 8 13 9 14 10 15 11 16 12
REMARK SMILES IDX 17 14 7 16 6 17 5 18 21 19 4 20 22 21 23 22 2 23 1 24 3 25
REMARK SMILES IDX 24 26
REMARK H PARENT 16 13 17 15 24 27
ROOT
ATOM      1  C1  OEF A1461       6.490  19.042  32.850  1.00  0.00    -0.009 C 
ATOM      2  C3  OEF A1461       5.847  20.031  33.658  1.00  0.00     0.021 C 
ATOM      3  C5  OEF A1461       4.546  20.498  33.347  1.00  0.00     0.087 C 
ATOM      4  C7  OEF A1461       3.795  20.006  32.201  1.00  0.00     0.146 C 
ATOM      5  C9  OEF A1461       4.484  19.021  31.430  1.00  0.00     0.087 C 
ATOM      6  C11 OEF A1461       5.761  18.562  31.733  1.00  0.00     0.021 C 
ATOM      7 BR1  OEF A1461       3.758  21.814  34.476  1.00  0.00    -0.086 Br
ATOM      8 BR2  OEF A1461       3.592  18.328  29.938  1.00  0.00    -0.086 Br
ENDROOT
BRANCH   1   9
ATOM      9  C13 OEF A1461       7.852  18.610  33.276  1.00  0.00     0.009 C 
BRANCH   9  10
ATOM     10  C14 OEF A1461       8.232  17.157  32.982  1.00  0.00     0.062 C 
BRANCH  10  11
ATOM     11  C18 OEF A1461       9.632  16.845  33.476  1.00  0.00     0.243 C 
BRANCH  11  12
ATOM     12  O3  OEF A1461      10.535  17.564  33.037  1.00  0.00    -0.368 OA
ATOM     13  H   UNL     1      11.036  17.963  33.792  1.00  0.00     0.213 HD
ENDBRANCH  11  12
BRANCH  11  14
ATOM     14  O4  OEF A1461       9.808  15.915  34.249  1.00  0.00    -0.368 OA
ATOM     15  H   UNL     1       9.746  16.244  35.181  1.00  0.00     0.213 HD
ENDBRANCH  11  14
ENDBRANCH  10  11
ENDBRANCH   9  10
ENDBRANCH   1   9
BRANCH   4  16
ATOM     16  O2  OEF A1461       2.484  20.493  31.924  1.00  0.00    -0.373 OA
BRANCH  16  17
ATOM     17  C2  OEF A1461       2.354  21.755  31.306  1.00  0.00     0.119 C 
ATOM     18  C4  OEF A1461       1.427  22.697  31.729  1.00  0.00     0.038 C 
ATOM     19  C12 OEF A1461       3.137  22.182  30.208  1.00  0.00     0.035 C 
ATOM     20  C6  OEF A1461       1.252  23.974  31.148  1.00  0.00     0.023 C 
ATOM     21  C10 OEF A1461       3.006  23.438  29.591  1.00  0.00     0.035 C 
ATOM     22  C8  OEF A1461       2.054  24.378  30.042  1.00  0.00     0.118 C 
BRANCH  20  23
ATOM     23  C15 OEF A1461       0.202  24.957  31.681  1.00  0.00    -0.012 C 
ATOM     24  C16 OEF A1461       0.938  25.720  32.807  1.00  0.00     0.008 C 
ATOM     25  C17 OEF A1461      -1.065  24.253  32.198  1.00  0.00     0.008 C 
ENDBRANCH  20  23
BRANCH  22  26
ATOM     26  O1  OEF A1461       1.923  25.612  29.440  1.00  0.00    -0.393 OA
ATOM     27  H   UNL     1       1.849  26.312  30.136  1.00  0.00     0.210 HD
ENDBRANCH  22  26
ENDBRANCH  16  17
ENDBRANCH   4  16
TORSDOF 9
